# vtk DataFile Version 3.0
Molecular Dynamics Particle Data
ASCII
DATASET POLYDATA
POINTS 200 float
0.489253 0.489249 0.489249
0.488726 0.488722 0.598629
0.488688 0.488683 0.7
0.488726 0.488722 0.801371
0.489253 0.489249 0.910752
0.488726 0.598629 0.488722
0.488121 0.59853 0.59853
0.488075 0.598517 0.7
0.488121 0.59853 0.80147
0.488726 0.598629 0.911278
0.488688 0.7 0.488683
0.488075 0.7 0.598517
0.488027 0.7 0.7
0.488075 0.7 0.801483
0.488688 0.7 0.911317
0.488726 0.801371 0.488722
0.488121 0.80147 0.59853
0.488075 0.801483 0.7
0.488121 0.80147 0.80147
0.488726 0.801371 0.911278
0.489253 0.910752 0.489249
0.488726 0.911278 0.598629
0.488688 0.911317 0.7
0.488726 0.911278 0.801371
0.489253 0.910752 0.910752
0.598725 0.488726 0.488726
0.598637 0.48812 0.598531
0.598627 0.488073 0.7
0.598637 0.48812 0.801469
0.598725 0.488726 0.911275
0.598637 0.598531 0.48812
0.598535 0.598415 0.598415
0.598522 0.5984 0.7
0.598535 0.598415 0.801585
0.598637 0.598531 0.91188
0.598627 0.7 0.488073
0.598522 0.7 0.5984
0.598509 0.7 0.7
0.598522 0.7 0.8016
0.598627 0.7 0.911927
0.598637 0.801469 0.48812
0.598535 0.801585 0.598415
0.598522 0.8016 0.7
0.598535 0.801585 0.801585
0.598637 0.801469 0.91188
0.598725 0.911275 0.488726
0.598637 0.91188 0.598531
0.598627 0.911927 0.7
0.598637 0.91188 0.801469
0.598725 0.911275 0.911275
0.701275 0.488726 0.488726
0.701363 0.48812 0.598531
0.701374 0.488073 0.7
0.701363 0.48812 0.801469
0.701275 0.488726 0.911275
0.701363 0.598531 0.48812
0.701465 0.598415 0.598415
0.701478 0.5984 0.7
0.701465 0.598415 0.801585
0.701363 0.598531 0.91188
0.701374 0.7 0.488073
0.701478 0.7 0.5984
0.701491 0.7 0.7
0.701478 0.7 0.8016
0.701374 0.7 0.911927
0.701363 0.801469 0.48812
0.701465 0.801585 0.598415
0.701478 0.8016 0.7
0.701465 0.801585 0.801585
0.701363 0.801469 0.91188
0.701275 0.911275 0.488726
0.701363 0.91188 0.598531
0.701374 0.911927 0.7
0.701363 0.91188 0.801469
0.701275 0.911275 0.911275
0.810748 0.489249 0.489249
0.811273 0.488722 0.598629
0.811312 0.488683 0.7
0.811273 0.488722 0.801371
0.810748 0.489249 0.910752
0.811273 0.598629 0.488722
0.811879 0.59853 0.59853
0.811925 0.598517 0.7
0.811879 0.59853 0.80147
0.811273 0.598629 0.911278
0.811312 0.7 0.488683
0.811925 0.7 0.598517
0.811973 0.7 0.7
0.811925 0.7 0.801483
0.811312 0.7 0.911317
0.811273 0.801371 0.488722
0.811879 0.80147 0.59853
0.811925 0.801483 0.7
0.811879 0.80147 0.80147
0.811273 0.801371 0.911278
0.810748 0.910752 0.489249
0.811273 0.911278 0.598629
0.811312 0.911317 0.7
0.811273 0.911278 0.801371
0.810748 0.910752 0.910752
1.98925 0.489249 0.489249
1.98873 0.488722 0.598629
1.98869 0.488683 0.7
1.98873 0.488722 0.801371
1.98925 0.489249 0.910752
1.98873 0.598629 0.488722
1.98812 0.59853 0.59853
1.98808 0.598517 0.7
1.98812 0.59853 0.80147
1.98873 0.598629 0.911278
1.98869 0.7 0.488683
1.98808 0.7 0.598517
1.98803 0.7 0.7
1.98808 0.7 0.801483
1.98869 0.7 0.911317
1.98873 0.801371 0.488722
1.98812 0.80147 0.59853
1.98808 0.801483 0.7
1.98812 0.80147 0.80147
1.98873 0.801371 0.911278
1.98925 0.910752 0.489249
1.98873 0.911278 0.598629
1.98869 0.911317 0.7
1.98873 0.911278 0.801371
1.98925 0.910752 0.910752
2.09873 0.488726 0.488726
2.09864 0.48812 0.598531
2.09863 0.488073 0.7
2.09864 0.48812 0.801469
2.09873 0.488726 0.911275
2.09864 0.598531 0.48812
2.09853 0.598415 0.598415
2.09852 0.5984 0.7
2.09853 0.598415 0.801585
2.09864 0.598531 0.91188
2.09863 0.7 0.488073
2.09852 0.7 0.5984
2.09851 0.7 0.7
2.09852 0.7 0.8016
2.09863 0.7 0.911927
2.09864 0.801469 0.48812
2.09853 0.801585 0.598415
2.09852 0.8016 0.7
2.09853 0.801585 0.801585
2.09864 0.801469 0.91188
2.09873 0.911275 0.488726
2.09864 0.91188 0.598531
2.09863 0.911927 0.7
2.09864 0.91188 0.801469
2.09873 0.911275 0.911275
2.20127 0.488726 0.488726
2.20136 0.48812 0.598531
2.20137 0.488073 0.7
2.20136 0.48812 0.801469
2.20127 0.488726 0.911275
2.20136 0.598531 0.48812
2.20147 0.598415 0.598415
2.20148 0.5984 0.7
2.20147 0.598415 0.801585
2.20136 0.598531 0.91188
2.20137 0.7 0.488073
2.20148 0.7 0.5984
2.20149 0.7 0.7
2.20148 0.7 0.8016
2.20137 0.7 0.911927
2.20136 0.801469 0.48812
2.20147 0.801585 0.598415
2.20148 0.8016 0.7
2.20147 0.801585 0.801585
2.20136 0.801469 0.91188
2.20127 0.911275 0.488726
2.20136 0.91188 0.598531
2.20137 0.911927 0.7
2.20136 0.91188 0.801469
2.20127 0.911275 0.911275
2.31075 0.489249 0.489249
2.31127 0.488722 0.598629
2.31131 0.488683 0.7
2.31127 0.488722 0.801371
2.31075 0.489249 0.910752
2.31127 0.598629 0.488722
2.31188 0.59853 0.59853
2.31193 0.598517 0.7
2.31188 0.59853 0.80147
2.31127 0.598629 0.911278
2.31131 0.7 0.488683
2.31193 0.7 0.598517
2.31197 0.7 0.7
2.31193 0.7 0.801483
2.31131 0.7 0.911317
2.31127 0.801371 0.488722
2.31188 0.80147 0.59853
2.31193 0.801483 0.7
2.31188 0.80147 0.80147
2.31127 0.801371 0.911278
2.31075 0.910752 0.489249
2.31127 0.911278 0.598629
2.31131 0.911317 0.7
2.31127 0.911278 0.801371
2.31075 0.910752 0.910752
VERTICES 200 400
1 0
1 1
1 2
1 3
1 4
1 5
1 6
1 7
1 8
1 9
1 10
1 11
1 12
1 13
1 14
1 15
1 16
1 17
1 18
1 19
1 20
1 21
1 22
1 23
1 24
1 25
1 26
1 27
1 28
1 29
1 30
1 31
1 32
1 33
1 34
1 35
1 36
1 37
1 38
1 39
1 40
1 41
1 42
1 43
1 44
1 45
1 46
1 47
1 48
1 49
1 50
1 51
1 52
1 53
1 54
1 55
1 56
1 57
1 58
1 59
1 60
1 61
1 62
1 63
1 64
1 65
1 66
1 67
1 68
1 69
1 70
1 71
1 72
1 73
1 74
1 75
1 76
1 77
1 78
1 79
1 80
1 81
1 82
1 83
1 84
1 85
1 86
1 87
1 88
1 89
1 90
1 91
1 92
1 93
1 94
1 95
1 96
1 97
1 98
1 99
1 100
1 101
1 102
1 103
1 104
1 105
1 106
1 107
1 108
1 109
1 110
1 111
1 112
1 113
1 114
1 115
1 116
1 117
1 118
1 119
1 120
1 121
1 122
1 123
1 124
1 125
1 126
1 127
1 128
1 129
1 130
1 131
1 132
1 133
1 134
1 135
1 136
1 137
1 138
1 139
1 140
1 141
1 142
1 143
1 144
1 145
1 146
1 147
1 148
1 149
1 150
1 151
1 152
1 153
1 154
1 155
1 156
1 157
1 158
1 159
1 160
1 161
1 162
1 163
1 164
1 165
1 166
1 167
1 168
1 169
1 170
1 171
1 172
1 173
1 174
1 175
1 176
1 177
1 178
1 179
1 180
1 181
1 182
1 183
1 184
1 185
1 186
1 187
1 188
1 189
1 190
1 191
1 192
1 193
1 194
1 195
1 196
1 197
1 198
1 199
POINT_DATA 200
VECTORS velocity float
-0.0959707 -0.0960629 -0.0960629
-0.10058 -0.100687 -0.0225917
-0.101113 -0.101225 6.533e-07
-0.10058 -0.100687 0.0225924
-0.0959707 -0.0960629 0.096062
-0.10058 -0.0225917 -0.100687
-0.105915 -0.0240081 -0.0240081
-0.106537 -0.0242227 3.05493e-07
-0.105915 -0.0240081 0.0240072
-0.10058 -0.0225917 0.100687
-0.101113 6.55078e-07 -0.101225
-0.106537 3.05473e-07 -0.0242227
-0.107178 6.9713e-08 6.83512e-08
-0.106537 3.665e-07 0.024223
-0.101113 6.55074e-07 0.101225
-0.10058 0.0225924 -0.100687
-0.105915 0.0240072 -0.0240081
-0.106537 0.024223 3.64441e-07
-0.105915 0.0240072 0.0240072
-0.10058 0.0225924 0.100687
-0.0959707 0.096062 -0.0960629
-0.10058 0.100687 -0.0225917
-0.101113 0.101225 6.52505e-07
-0.10058 0.100687 0.0225924
-0.0959707 0.0960619 0.0960619
-0.0202777 -0.100625 -0.100625
-0.021467 -0.105966 -0.0239804
-0.0216456 -0.10659 -1.3833e-07
-0.0214671 -0.105966 0.0239814
-0.0202777 -0.100625 0.100625
-0.021467 -0.0239804 -0.105966
-0.0228256 -0.0256055 -0.0256055
-0.0230352 -0.025859 -1.21576e-07
-0.0228256 -0.0256055 0.0256043
-0.021467 -0.0239804 0.105966
-0.0216456 -1.39932e-07 -0.10659
-0.0230352 -1.22546e-07 -0.025859
-0.0232494 3.62467e-07 3.61667e-07
-0.0230352 -1.21386e-07 0.0258585
-0.0216457 -1.3957e-07 0.106591
-0.0214671 0.0239814 -0.105966
-0.0228256 0.0256043 -0.0256055
-0.0230352 0.0258585 -1.21368e-07
-0.0228257 0.0256043 0.0256043
-0.0214671 0.0239814 0.105966
-0.0202777 0.100625 -0.100625
-0.021467 0.105966 -0.0239804
-0.0216457 0.106591 -1.3836e-07
-0.0214671 0.105966 0.0239814
-0.0202776 0.100625 0.100625
0.0202785 -0.100625 -0.100625
0.0214672 -0.105966 -0.0239804
0.0216461 -0.106591 -1.38238e-07
0.0214672 -0.105966 0.0239814
0.0202785 -0.100625 0.100625
0.0214672 -0.0239804 -0.105966
0.0228248 -0.0256055 -0.0256055
0.0230355 -0.025859 -1.21399e-07
0.0228248 -0.0256055 0.0256043
0.0214672 -0.0239804 0.105966
0.0216461 -1.39628e-07 -0.106591
0.0230355 -1.22265e-07 -0.025859
0.0232507 3.61947e-07 3.6134e-07
0.0230355 -1.21191e-07 0.0258584
0.0216461 -1.39977e-07 0.106591
0.0214672 0.0239814 -0.105966
0.0228248 0.0256043 -0.0256055
0.0230355 0.0258584 -1.2122e-07
0.0228249 0.0256043 0.0256043
0.0214672 0.0239814 0.105966
0.0202785 0.100625 -0.100625
0.0214672 0.105966 -0.0239804
0.0216461 0.106591 -1.38824e-07
0.0214672 0.105966 0.0239814
0.0202785 0.100625 0.100625
0.0959701 -0.0960629 -0.0960629
0.10058 -0.100687 -0.0225917
0.101112 -0.101225 6.53128e-07
0.100579 -0.100687 0.0225924
0.0959701 -0.0960627 0.0960619
0.10058 -0.0225917 -0.100687
0.105915 -0.0240081 -0.0240081
0.106537 -0.0242227 3.05426e-07
0.105915 -0.0240081 0.0240072
0.10058 -0.0225919 0.100687
0.101112 6.54944e-07 -0.101225
0.106537 3.0605e-07 -0.0242227
0.107177 6.97383e-08 6.88127e-08
0.106537 3.66525e-07 0.024223
0.101112 6.55113e-07 0.101225
0.10058 0.0225924 -0.100687
0.105915 0.0240072 -0.0240081
0.106537 0.024223 3.64247e-07
0.105915 0.0240072 0.0240072
0.10058 0.0225924 0.100687
0.0959701 0.0960619 -0.0960627
0.10058 0.100687 -0.0225919
0.101112 0.101225 6.52351e-07
0.10058 0.100687 0.0225924
0.09597 0.0960619 0.0960619
-0.0959701 -0.096063 -0.096063
-0.100579 -0.100687 -0.0225918
-0.101114 -0.101225 6.53296e-07
-0.100579 -0.100687 0.0225925
-0.09597 -0.0960629 0.096062
-0.100579 -0.0225918 -0.100687
-0.105917 -0.024008 -0.024008
-0.106537 -0.0242227 3.05008e-07
-0.105917 -0.0240081 0.0240072
-0.100579 -0.0225918 0.100687
-0.101114 6.5541e-07 -0.101225
-0.106537 3.05017e-07 -0.0242227
-0.10718 6.65606e-08 6.48739e-08
-0.106537 3.07269e-07 0.024223
-0.101114 6.5466e-07 0.101225
-0.100579 0.0225925 -0.100687
-0.105917 0.0240072 -0.0240081
-0.106537 0.024223 3.642e-07
-0.105917 0.0240072 0.0240072
-0.100579 0.0225925 0.100687
-0.09597 0.096062 -0.0960629
-0.100579 0.100687 -0.0225918
-0.101114 0.101225 6.54017e-07
-0.100579 0.100687 0.0225925
-0.09597 0.096062 0.0960619
-0.0202831 -0.100625 -0.100625
-0.0214705 -0.105965 -0.0239803
-0.0216448 -0.106591 -1.38026e-07
-0.0214705 -0.105966 0.0239814
-0.0202831 -0.100625 0.100625
-0.0214705 -0.0239803 -0.105965
-0.0228211 -0.0256056 -0.0256056
-0.0230394 -0.025859 -1.24761e-07
-0.0228211 -0.0256056 0.0256044
-0.0214705 -0.0239804 0.105966
-0.0216448 -1.39976e-07 -0.106591
-0.0230394 -1.25074e-07 -0.025859
-0.0232508 2.08913e-07 2.07747e-07
-0.0230394 -1.24986e-07 0.0258586
-0.0216448 -1.39196e-07 0.106591
-0.0214705 0.0239814 -0.105966
-0.0228211 0.0256044 -0.0256056
-0.0230394 0.0258586 -1.24192e-07
-0.0228211 0.0256044 0.0256044
-0.0214705 0.0239814 0.105966
-0.0202831 0.100625 -0.100625
-0.0214705 0.105966 -0.0239803
-0.0216448 0.106591 -1.37908e-07
-0.0214705 0.105966 0.0239814
-0.0202831 0.100625 0.100625
0.0202856 -0.100626 -0.100626
0.0214643 -0.105966 -0.0239805
0.0216419 -0.106591 -1.3811e-07
0.0214643 -0.105966 0.0239815
0.0202856 -0.100626 0.100625
0.0214643 -0.0239805 -0.105966
0.0228197 -0.0256054 -0.0256054
0.0230418 -0.025859 -1.21498e-07
0.0228197 -0.0256054 0.0256041
0.0214643 -0.0239805 0.105966
0.0216419 -1.39422e-07 -0.106591
0.0230418 -1.22458e-07 -0.025859
0.0232527 3.58992e-07 3.57961e-07
0.0230418 -1.21641e-07 0.0258584
0.0216419 -1.39461e-07 0.106591
0.0214643 0.0239815 -0.105966
0.0228197 0.0256041 -0.0256054
0.0230418 0.0258584 -1.21275e-07
0.0228198 0.0256042 0.0256042
0.0214643 0.0239815 0.105966
0.0202856 0.100625 -0.100626
0.0214643 0.105966 -0.0239805
0.0216419 0.106591 -1.38607e-07
0.0214643 0.105966 0.0239815
0.0202856 0.100625 0.100625
0.0959696 -0.0960629 -0.0960629
0.100583 -0.100687 -0.0225918
0.101117 -0.101225 6.52067e-07
0.100583 -0.100687 0.0225925
0.0959695 -0.0960629 0.096062
0.100583 -0.0225918 -0.100687
0.105918 -0.0240081 -0.0240081
0.106537 -0.0242227 3.0505e-07
0.105918 -0.0240081 0.0240072
0.100583 -0.0225918 0.100687
0.101117 6.55125e-07 -0.101225
0.106537 3.05423e-07 -0.0242227
0.107176 6.92552e-08 6.87575e-08
0.106537 3.66564e-07 0.024223
0.101117 6.55547e-07 0.101225
0.100583 0.0225925 -0.100687
0.105918 0.0240072 -0.0240081
0.106537 0.024223 3.63969e-07
0.105918 0.0240072 0.0240072
0.100583 0.0225925 0.100687
0.0959695 0.0960619 -0.0960629
0.100583 0.100687 -0.0225918
0.101117 0.101225 6.51259e-07
0.100583 0.100687 0.0225925
0.0959694 0.0960619 0.0960619
VECTORS force float
-0.298489 -0.300489 -0.300489
-0.311561 -0.313806 -0.234214
-0.315884 -0.318197 6.84565e-06
-0.311561 -0.313806 0.234212
-0.298489 -0.300489 0.300486
-0.311561 -0.234214 -0.313806
-0.327077 -0.245578 -0.245578
-0.33203 -0.248238 -2.29289e-06
-0.327078 -0.245578 0.245578
-0.311561 -0.234214 0.313805
-0.315884 6.62043e-06 -0.318197
-0.33203 -2.33169e-06 -0.248238
-0.337159 3.65225e-08 -5.90081e-10
-0.33203 -3.22407e-08 0.248245
-0.315885 6.49045e-06 0.318196
-0.31156 0.234212 -0.313806
-0.327078 0.245578 -0.245578
-0.33203 0.248245 -4.15726e-08
-0.327078 0.245575 0.245575
-0.31156 0.234212 0.313806
-0.298488 0.300486 -0.300489
-0.311561 0.313805 -0.234214
-0.315885 0.318196 6.82087e-06
-0.31156 0.313806 0.234212
-0.298488 0.300486 0.300486
-0.190826 -0.312926 -0.312926
-0.198851 -0.328564 -0.245086
-0.200823 -0.333556 -3.20328e-08
-0.198851 -0.328564 0.245093
-0.190825 -0.312925 0.31292
-0.198851 -0.245086 -0.328564
-0.207702 -0.257759 -0.257758
-0.209942 -0.260789 -9.20531e-06
-0.207703 -0.257759 0.257764
-0.198851 -0.245086 0.328564
-0.200823 1.59273e-09 -0.333556
-0.209942 -9.19495e-06 -0.260788
-0.212256 -3.98802e-07 -4.32063e-07
-0.209943 -9.23493e-06 0.260787
-0.20082 -2.45673e-08 0.33356
-0.198851 0.245093 -0.328564
-0.207703 0.257764 -0.257759
-0.209943 0.260787 -9.19616e-06
-0.207703 0.257764 0.257764
-0.198851 0.245093 0.328564
-0.190825 0.31292 -0.312925
-0.198851 0.328564 -0.245086
-0.20082 0.33356 4.48272e-10
-0.19885 0.328564 0.245093
-0.190825 0.31292 0.31292
0.190828 -0.312926 -0.312926
0.198846 -0.328564 -0.245086
0.200822 -0.333556 -3.04213e-08
0.198846 -0.328564 0.245093
0.190828 -0.312925 0.31292
0.198846 -0.245086 -0.328564
0.207701 -0.257758 -0.257758
0.209944 -0.260788 -9.19352e-06
0.207701 -0.257759 0.257764
0.198846 -0.245086 0.328564
0.200822 -1.45219e-08 -0.333556
0.209944 -9.15699e-06 -0.260788
0.212261 -4.1388e-07 -4.16645e-07
0.209944 -9.22793e-06 0.260787
0.20082 -6.0253e-08 0.33356
0.198846 0.245094 -0.328564
0.207702 0.257764 -0.257759
0.209945 0.260787 -9.18857e-06
0.207702 0.257764 0.257764
0.198846 0.245094 0.328564
0.190828 0.31292 -0.312925
0.198846 0.328564 -0.245086
0.20082 0.33356 -2.79813e-08
0.198846 0.328564 0.245093
0.190827 0.31292 0.31292
0.298488 -0.300489 -0.300489
0.311563 -0.313806 -0.234215
0.315888 -0.318197 6.82151e-06
0.311563 -0.313806 0.234213
0.298488 -0.300489 0.300486
0.311563 -0.234214 -0.313806
0.327075 -0.245578 -0.245578
0.33203 -0.248238 -2.27084e-06
0.327075 -0.245578 0.245578
0.311563 -0.234215 0.313805
0.315888 6.62651e-06 -0.318197
0.33203 -2.33403e-06 -0.248238
0.337161 8.68564e-09 -1.5376e-08
0.33203 -3.66915e-08 0.248245
0.315888 6.49593e-06 0.318196
0.311563 0.234212 -0.313806
0.327075 0.245578 -0.245578
0.33203 0.248245 -4.89151e-08
0.327075 0.245575 0.245575
0.311563 0.234212 0.313806
0.298488 0.300486 -0.300489
0.311563 0.313805 -0.234215
0.315888 0.318196 6.82713e-06
0.311563 0.313806 0.234212
0.298488 0.300486 0.300486
-0.298493 -0.300489 -0.300489
-0.311569 -0.313807 -0.234215
-0.315892 -0.318197 6.84653e-06
-0.311569 -0.313807 0.234213
-0.298493 -0.300489 0.300486
-0.311569 -0.234214 -0.313807
-0.327093 -0.245578 -0.245578
-0.332034 -0.248237 -2.29883e-06
-0.327094 -0.245578 0.245577
-0.311569 -0.234214 0.313806
-0.315892 6.62193e-06 -0.318197
-0.332034 -2.33545e-06 -0.248237
-0.337172 -4.80478e-08 -9.92168e-08
-0.332034 -2.39367e-06 0.248245
-0.315892 6.46234e-06 0.318196
-0.311569 0.234213 -0.313807
-0.327094 0.245578 -0.245578
-0.332034 0.248245 -4.66949e-08
-0.327094 0.245578 0.245575
-0.311569 0.234213 0.313807
-0.298493 0.300486 -0.300489
-0.311569 0.313806 -0.234214
-0.315892 0.318196 6.88092e-06
-0.311569 0.313806 0.234212
-0.298492 0.300486 0.300486
-0.190821 -0.312926 -0.312926
-0.198825 -0.328564 -0.245086
-0.200815 -0.333557 -2.7506e-08
-0.198824 -0.328564 0.245094
-0.190821 -0.312925 0.312919
-0.198825 -0.245086 -0.328564
-0.207663 -0.257759 -0.257759
-0.209934 -0.260787 -9.24453e-06
-0.207663 -0.257759 0.257764
-0.198825 -0.245086 0.328563
-0.200815 2.38326e-08 -0.333557
-0.209934 -9.24427e-06 -0.260787
-0.212247 -2.60722e-06 -2.63566e-06
-0.209934 -9.28209e-06 0.260788
-0.200815 -2.00122e-08 0.33356
-0.198824 0.245094 -0.328564
-0.207663 0.257764 -0.257759
-0.209934 0.260788 -9.21468e-06
-0.207663 0.257765 0.257765
-0.198824 0.245094 0.328563
-0.190821 0.312919 -0.312925
-0.198824 0.328563 -0.245086
-0.200815 0.33356 1.47373e-09
-0.198824 0.328563 0.245093
-0.190821 0.312919 0.312919
0.190826 -0.312926 -0.312926
0.198794 -0.328564 -0.245087
0.200778 -0.333556 -2.66039e-08
0.198793 -0.328564 0.245095
0.190825 -0.312926 0.31292
0.198794 -0.245087 -0.328564
0.207651 -0.257757 -0.257757
0.209968 -0.260787 -9.22771e-06
0.207651 -0.257757 0.257762
0.198794 -0.245087 0.328564
0.200778 -1.42723e-08 -0.333556
0.209968 -9.14672e-06 -0.260787
0.21227 -4.74002e-07 -4.47859e-07
0.209969 -9.22754e-06 0.260786
0.200778 -5.70252e-08 0.333559
0.198794 0.245096 -0.328564
0.207651 0.257763 -0.257757
0.209969 0.260786 -9.18868e-06
0.207651 0.257763 0.257763
0.198793 0.245096 0.328564
0.190825 0.31292 -0.312926
0.198794 0.328564 -0.245087
0.200778 0.333559 -2.65826e-08
0.198794 0.328564 0.245095
0.190825 0.31292 0.31292
0.298498 -0.300489 -0.300489
0.311595 -0.313807 -0.234215
0.315918 -0.318197 6.85452e-06
0.311595 -0.313807 0.234213
0.298498 -0.300489 0.300486
0.311595 -0.234214 -0.313807
0.327087 -0.24558 -0.245579
0.332035 -0.248237 -2.30049e-06
0.327087 -0.24558 0.245578
0.311595 -0.234214 0.313806
0.315918 6.63087e-06 -0.318197
0.332035 -2.33323e-06 -0.248237
0.337131 -5.03369e-08 -1.55215e-08
0.332035 -1.79231e-08 0.248245
0.315918 6.49514e-06 0.318197
0.311595 0.234213 -0.313807
0.327087 0.245578 -0.245579
0.332035 0.248245 -4.01584e-08
0.327087 0.245575 0.245575
0.311595 0.234212 0.313807
0.298498 0.300486 -0.300489
0.311595 0.313806 -0.234214
0.315918 0.318197 6.82634e-06
0.311595 0.313807 0.234212
0.298498 0.300486 0.300486
SCALARS mass float 1
LOOKUP_TABLE default
1
1
1
1
1
1
1
1
1
1
1
1
1
1
1
1
1
1
1
1
1
1
1
1
1
1
1
1
1
1
1
1
1
1
1
1
1
1
1
1
1
1
1
1
1
1
1
1
1
1
1
1
1
1
1
1
1
1
1
1
1
1
1
1
1
1
1
1
1
1
1
1
1
1
1
1
1
1
1
1
1
1
1
1
1
1
1
1
1
1
1
1
1
1
1
1
1
1
1
1
1
1
1
1
1
1
1
1
1
1
1
1
1
1
1
1
1
1
1
1
1
1
1
1
1
1
1
1
1
1
1
1
1
1
1
1
1
1
1
1
1
1
1
1
1
1
1
1
1
1
1
1
1
1
1
1
1
1
1
1
1
1
1
1
1
1
1
1
1
1
1
1
1
1
1
1
1
1
1
1
1
1
1
1
1
1
1
1
1
1
1
1
1
1
1
1
1
1
1
1
