# vtk DataFile Version 3.0
Molecular Dynamics Particle Data
ASCII
DATASET POLYDATA
POINTS 200 float
0.423395 0.422208 0.422208
0.419938 0.41872 0.565495
0.419299 0.418054 0.7
0.419938 0.41872 0.834505
0.423395 0.422208 0.977792
0.419938 0.565495 0.41872
0.415903 0.564133 0.564133
0.415166 0.5638 0.7
0.415903 0.564133 0.835867
0.419938 0.565495 0.98128
0.419299 0.7 0.418054
0.415166 0.7 0.5638
0.414403 0.7 0.7
0.415166 0.7 0.836201
0.419299 0.7 0.981946
0.419938 0.834505 0.41872
0.415903 0.835867 0.564133
0.415166 0.836201 0.7
0.415903 0.835866 0.835866
0.419938 0.834505 0.98128
0.423395 0.977792 0.422208
0.419938 0.98128 0.565495
0.419299 0.981946 0.7
0.419938 0.98128 0.834505
0.423396 0.977792 0.977792
0.575441 0.41892 0.41892
0.574462 0.414883 0.564241
0.574238 0.414126 0.7
0.574462 0.414883 0.835759
0.575441 0.41892 0.981079
0.574462 0.564241 0.414883
0.57336 0.562723 0.562723
0.573104 0.56235 0.7
0.57336 0.562723 0.837277
0.574462 0.564241 0.985117
0.574238 0.7 0.414126
0.573104 0.7 0.56235
0.572839 0.7 0.7
0.573104 0.7 0.83765
0.574238 0.7 0.985875
0.574462 0.835759 0.414883
0.57336 0.837277 0.562723
0.573104 0.83765 0.7
0.57336 0.837277 0.837277
0.574462 0.835759 0.985117
0.575441 0.981079 0.41892
0.574462 0.985117 0.564241
0.574238 0.985875 0.7
0.574462 0.985117 0.835759
0.575441 0.981079 0.981079
0.72456 0.41892 0.41892
0.725538 0.414883 0.564241
0.725762 0.414126 0.7
0.725538 0.414883 0.835759
0.72456 0.41892 0.981079
0.725538 0.564241 0.414883
0.726639 0.562723 0.562723
0.726897 0.56235 0.7
0.726639 0.562723 0.837277
0.725538 0.564241 0.985117
0.725762 0.7 0.414126
0.726897 0.7 0.56235
0.727162 0.7 0.7
0.726897 0.7 0.83765
0.725762 0.7 0.985875
0.725538 0.835759 0.414883
0.726639 0.837277 0.562723
0.726897 0.83765 0.7
0.726639 0.837277 0.837277
0.725538 0.835759 0.985117
0.72456 0.981079 0.41892
0.725538 0.985117 0.564241
0.725762 0.985875 0.7
0.725538 0.985117 0.835759
0.72456 0.981079 0.981079
0.876605 0.422208 0.422208
0.880062 0.41872 0.565495
0.880701 0.418054 0.7
0.880062 0.41872 0.834505
0.876605 0.422208 0.977792
0.880062 0.565495 0.41872
0.884096 0.564133 0.564133
0.884834 0.5638 0.7
0.884096 0.564133 0.835867
0.880062 0.565495 0.98128
0.880701 0.7 0.418054
0.884834 0.7 0.5638
0.885598 0.7 0.7
0.884834 0.7 0.836201
0.880701 0.7 0.981946
0.880062 0.834505 0.41872
0.884096 0.835867 0.564133
0.884834 0.836201 0.7
0.884096 0.835866 0.835866
0.880062 0.834505 0.98128
0.876605 0.977792 0.422208
0.880062 0.98128 0.565495
0.880701 0.981946 0.7
0.880062 0.98128 0.834505
0.876605 0.977792 0.977792
1.9234 0.422208 0.422208
1.91994 0.41872 0.565495
1.9193 0.418054 0.7
1.91994 0.41872 0.834505
1.9234 0.422208 0.977792
1.91994 0.565495 0.41872
1.9159 0.564133 0.564133
1.91517 0.5638 0.7
1.9159 0.564133 0.835867
1.91994 0.565495 0.98128
1.9193 0.7 0.418054
1.91517 0.7 0.5638
1.9144 0.7 0.7
1.91517 0.7 0.836201
1.9193 0.7 0.981946
1.91994 0.834505 0.41872
1.9159 0.835867 0.564133
1.91517 0.836201 0.7
1.9159 0.835867 0.835866
1.91994 0.834505 0.98128
1.9234 0.977792 0.422208
1.91994 0.98128 0.565495
1.9193 0.981946 0.7
1.91994 0.98128 0.834505
1.9234 0.977792 0.977792
2.07544 0.41892 0.41892
2.07446 0.414883 0.564241
2.07424 0.414126 0.7
2.07446 0.414883 0.835759
2.07544 0.41892 0.981079
2.07446 0.564241 0.414883
2.07336 0.562723 0.562723
2.0731 0.56235 0.7
2.07336 0.562723 0.837277
2.07446 0.564241 0.985117
2.07424 0.7 0.414126
2.0731 0.7 0.56235
2.07284 0.7 0.7
2.0731 0.7 0.83765
2.07424 0.7 0.985875
2.07446 0.835759 0.414883
2.07336 0.837277 0.562723
2.0731 0.83765 0.7
2.07336 0.837277 0.837277
2.07446 0.835759 0.985117
2.07544 0.981079 0.41892
2.07446 0.985117 0.564241
2.07424 0.985875 0.7
2.07446 0.985117 0.835759
2.07544 0.981079 0.981079
2.22456 0.41892 0.41892
2.22553 0.414883 0.564241
2.22576 0.414126 0.7
2.22553 0.414883 0.835759
2.22456 0.41892 0.98108
2.22553 0.564241 0.414883
2.22664 0.562723 0.562723
2.2269 0.56235 0.7
2.22664 0.562723 0.837277
2.22553 0.564241 0.985117
2.22576 0.7 0.414126
2.2269 0.7 0.56235
2.22716 0.7 0.7
2.2269 0.7 0.83765
2.22576 0.7 0.985875
2.22553 0.835759 0.414883
2.22664 0.837277 0.562723
2.2269 0.83765 0.7
2.22664 0.837277 0.837277
2.22553 0.835759 0.985117
2.22456 0.98108 0.41892
2.22553 0.985117 0.564241
2.22576 0.985875 0.7
2.22553 0.985117 0.835759
2.22456 0.981079 0.98108
2.3766 0.422208 0.422208
2.38006 0.41872 0.565495
2.3807 0.418054 0.7
2.38006 0.41872 0.834505
2.3766 0.422208 0.977792
2.38006 0.565495 0.41872
2.3841 0.564133 0.564133
2.38484 0.5638 0.7
2.3841 0.564133 0.835867
2.38006 0.565495 0.98128
2.3807 0.7 0.418054
2.38484 0.7 0.5638
2.38559 0.7 0.7
2.38484 0.7 0.836201
2.3807 0.7 0.981946
2.38006 0.834505 0.41872
2.3841 0.835867 0.564133
2.38484 0.836201 0.7
2.3841 0.835866 0.835866
2.38006 0.834505 0.98128
2.3766 0.977792 0.422208
2.38006 0.98128 0.565495
2.3807 0.981946 0.7
2.38006 0.98128 0.834505
2.3766 0.977792 0.977792
VERTICES 200 400
1 0
1 1
1 2
1 3
1 4
1 5
1 6
1 7
1 8
1 9
1 10
1 11
1 12
1 13
1 14
1 15
1 16
1 17
1 18
1 19
1 20
1 21
1 22
1 23
1 24
1 25
1 26
1 27
1 28
1 29
1 30
1 31
1 32
1 33
1 34
1 35
1 36
1 37
1 38
1 39
1 40
1 41
1 42
1 43
1 44
1 45
1 46
1 47
1 48
1 49
1 50
1 51
1 52
1 53
1 54
1 55
1 56
1 57
1 58
1 59
1 60
1 61
1 62
1 63
1 64
1 65
1 66
1 67
1 68
1 69
1 70
1 71
1 72
1 73
1 74
1 75
1 76
1 77
1 78
1 79
1 80
1 81
1 82
1 83
1 84
1 85
1 86
1 87
1 88
1 89
1 90
1 91
1 92
1 93
1 94
1 95
1 96
1 97
1 98
1 99
1 100
1 101
1 102
1 103
1 104
1 105
1 106
1 107
1 108
1 109
1 110
1 111
1 112
1 113
1 114
1 115
1 116
1 117
1 118
1 119
1 120
1 121
1 122
1 123
1 124
1 125
1 126
1 127
1 128
1 129
1 130
1 131
1 132
1 133
1 134
1 135
1 136
1 137
1 138
1 139
1 140
1 141
1 142
1 143
1 144
1 145
1 146
1 147
1 148
1 149
1 150
1 151
1 152
1 153
1 154
1 155
1 156
1 157
1 158
1 159
1 160
1 161
1 162
1 163
1 164
1 165
1 166
1 167
1 168
1 169
1 170
1 171
1 172
1 173
1 174
1 175
1 176
1 177
1 178
1 179
1 180
1 181
1 182
1 183
1 184
1 185
1 186
1 187
1 188
1 189
1 190
1 191
1 192
1 193
1 194
1 195
1 196
1 197
1 198
1 199
POINT_DATA 200
VECTORS velocity float
-0.146975 -0.152607 -0.152607
-0.153169 -0.158786 -0.0874566
-0.154614 -0.160319 2.12063e-06
-0.153169 -0.158786 0.0874559
-0.146974 -0.152607 0.152606
-0.153169 -0.0874566 -0.158786
-0.160458 -0.0901341 -0.0901341
-0.162119 -0.0908707 -1.12567e-06
-0.160458 -0.0901341 0.0901339
-0.153168 -0.0874566 0.158785
-0.154614 2.12687e-06 -0.160319
-0.162119 -1.12688e-06 -0.0908707
-0.163842 1.1198e-06 1.11795e-06
-0.162119 -9.62147e-07 0.0908719
-0.154614 2.12277e-06 0.16032
-0.153169 0.0874559 -0.158786
-0.160458 0.0901339 -0.0901341
-0.162119 0.0908719 -9.63771e-07
-0.160458 0.0901337 0.0901337
-0.153168 0.0874557 0.158785
-0.146974 0.152606 -0.152607
-0.153169 0.158785 -0.0874566
-0.154614 0.16032 2.11898e-06
-0.153168 0.158785 0.0874557
-0.146974 0.152606 0.152606
-0.0554622 -0.158081 -0.158081
-0.0573561 -0.165251 -0.089809
-0.0578424 -0.166982 1.28404e-06
-0.057356 -0.165251 0.089809
-0.0554621 -0.158081 0.15808
-0.0573561 -0.089809 -0.165251
-0.0594756 -0.0927455 -0.0927455
-0.0600327 -0.0935671 -2.42493e-06
-0.0594754 -0.0927453 0.0927472
-0.0573562 -0.0898089 0.165251
-0.0578424 1.27934e-06 -0.166982
-0.0600326 -2.42479e-06 -0.0935669
-0.0606069 -1.60511e-07 -1.59901e-07
-0.0600325 -2.58706e-06 0.0935673
-0.0578423 1.28213e-06 0.166982
-0.057356 0.089809 -0.165252
-0.0594754 0.0927472 -0.0927453
-0.0600325 0.0935673 -2.58714e-06
-0.0594754 0.0927472 0.0927472
-0.057356 0.089809 0.165251
-0.0554621 0.15808 -0.158081
-0.0573561 0.165251 -0.0898089
-0.0578422 0.166982 1.28095e-06
-0.057356 0.165251 0.089809
-0.055462 0.15808 0.15808
0.0554635 -0.158081 -0.158081
0.0573555 -0.165251 -0.089809
0.0578423 -0.166982 1.29089e-06
0.0573555 -0.165252 0.089809
0.0554635 -0.158081 0.15808
0.0573555 -0.089809 -0.165251
0.059474 -0.0927455 -0.0927455
0.0600328 -0.093567 -2.36382e-06
0.0594739 -0.0927453 0.0927472
0.0573556 -0.0898089 0.165251
0.0578423 1.29232e-06 -0.166982
0.0600329 -2.41256e-06 -0.093567
0.0606092 -2.51933e-07 -2.5125e-07
0.0600327 -2.60319e-06 0.0935673
0.0578421 1.29387e-06 0.166982
0.0573555 0.089809 -0.165252
0.0594739 0.0927472 -0.0927453
0.0600327 0.0935674 -2.53742e-06
0.0594739 0.0927472 0.0927471
0.0573554 0.089809 0.165251
0.0554635 0.15808 -0.158081
0.0573555 0.165251 -0.0898089
0.0578421 0.166982 1.2907e-06
0.0573554 0.165251 0.089809
0.0554635 0.15808 0.15808
0.146974 -0.152607 -0.152607
0.153169 -0.158786 -0.0874566
0.154614 -0.160319 2.12003e-06
0.153169 -0.158786 0.0874557
0.146974 -0.152607 0.152606
0.153169 -0.0874566 -0.158786
0.160457 -0.0901342 -0.0901342
0.162119 -0.0908708 -1.12126e-06
0.160457 -0.0901341 0.090134
0.153169 -0.0874566 0.158785
0.154614 2.12561e-06 -0.160319
0.162119 -1.12159e-06 -0.0908708
0.163844 1.23442e-06 1.23418e-06
0.162119 -9.60636e-07 0.0908718
0.154614 1.97389e-06 0.16032
0.153169 0.0874557 -0.158786
0.160457 0.090134 -0.0901341
0.162119 0.0908718 -9.62219e-07
0.160457 0.0901337 0.0901337
0.153169 0.0874557 0.158785
0.146974 0.152606 -0.152607
0.153169 0.158785 -0.0874566
0.154614 0.16032 1.96706e-06
0.153169 0.158785 0.0874557
0.146974 0.152606 0.152606
-0.146974 -0.152607 -0.152607
-0.153168 -0.158786 -0.0874567
-0.154615 -0.160319 2.12264e-06
-0.153168 -0.158786 0.0874559
-0.146974 -0.152607 0.152606
-0.153168 -0.0874567 -0.158786
-0.160462 -0.0901342 -0.0901342
-0.162116 -0.0908706 -1.12573e-06
-0.160461 -0.0901342 0.090134
-0.153168 -0.0874566 0.158785
-0.154615 2.12591e-06 -0.160319
-0.162116 -1.12551e-06 -0.0908706
-0.163847 1.12162e-06 1.1135e-06
-0.162116 -1.1235e-06 0.0908718
-0.154615 2.12516e-06 0.16032
-0.153168 0.0874559 -0.158786
-0.160462 0.090134 -0.0901342
-0.162116 0.0908718 -9.63589e-07
-0.160462 0.090134 0.0901337
-0.153168 0.0874559 0.158785
-0.146974 0.152606 -0.152607
-0.153168 0.158785 -0.0874566
-0.154615 0.16032 2.12589e-06
-0.153168 0.158785 0.0874559
-0.146974 0.152606 0.152606
-0.0554649 -0.158081 -0.158081
-0.0573623 -0.165251 -0.089809
-0.0578478 -0.166982 1.29061e-06
-0.0573623 -0.165251 0.0898092
-0.0554649 -0.158081 0.15808
-0.0573623 -0.089809 -0.165251
-0.059474 -0.0927452 -0.0927451
-0.0600323 -0.0935671 -2.66852e-06
-0.0594741 -0.092745 0.0927471
-0.0573623 -0.089809 0.165251
-0.0578478 1.29094e-06 -0.166982
-0.0600321 -2.66701e-06 -0.0935671
-0.0606043 -2.27534e-07 -2.26127e-07
-0.0600323 -2.63498e-06 0.0935674
-0.0578478 1.28949e-06 0.166982
-0.0573623 0.0898092 -0.165252
-0.0594741 0.0927471 -0.0927449
-0.0600322 0.0935674 -2.74317e-06
-0.0594741 0.0927469 0.0927469
-0.0573623 0.0898091 0.165251
-0.0554649 0.15808 -0.158081
-0.0573623 0.165251 -0.089809
-0.0578478 0.166982 1.28064e-06
-0.0573623 0.165251 0.0898089
-0.0554649 0.15808 0.15808
0.055468 -0.158082 -0.158082
0.0573534 -0.165251 -0.0898094
0.0578382 -0.166982 1.50358e-06
0.0573533 -0.165251 0.0898093
0.055468 -0.158082 0.158081
0.0573534 -0.0898094 -0.165251
0.0594704 -0.0927454 -0.0927454
0.0600399 -0.0935672 -2.26138e-06
0.0594704 -0.0927455 0.0927469
0.0573534 -0.0898093 0.165251
0.0578382 1.49466e-06 -0.166982
0.0600399 -2.26214e-06 -0.0935672
0.0606022 -7.36584e-08 -7.33868e-08
0.0600399 -2.2599e-06 0.0935673
0.0578382 1.49326e-06 0.166982
0.0573533 0.0898093 -0.165251
0.0594705 0.0927468 -0.0927455
0.06004 0.0935673 -2.26252e-06
0.0594705 0.0927469 0.0927469
0.0573533 0.0898093 0.165251
0.055468 0.158081 -0.158082
0.0573534 0.165251 -0.0898093
0.0578382 0.166982 1.49311e-06
0.0573533 0.165251 0.0898093
0.055468 0.158081 0.158081
0.146976 -0.152606 -0.152606
0.153173 -0.158786 -0.0874566
0.154621 -0.160319 2.12209e-06
0.153173 -0.158786 0.0874558
0.146976 -0.152606 0.152606
0.153173 -0.0874566 -0.158786
0.160459 -0.0901346 -0.0901346
0.162124 -0.090871 -1.16936e-06
0.160459 -0.0901346 0.0901341
0.153173 -0.0874566 0.158786
0.154621 2.12821e-06 -0.160319
0.162124 -1.1684e-06 -0.090871
0.163834 1.31631e-06 1.31528e-06
0.162124 -9.80411e-07 0.0908719
0.154621 2.1286e-06 0.16032
0.153173 0.0874559 -0.158786
0.160459 0.0901341 -0.0901346
0.162124 0.0908719 -9.84133e-07
0.160459 0.0901339 0.0901339
0.153173 0.0874557 0.158786
0.146976 0.152606 -0.152606
0.153173 0.158786 -0.0874566
0.154621 0.16032 2.11983e-06
0.153173 0.158786 0.0874557
0.146976 0.152606 0.152606
VECTORS force float
-0.0211076 -0.0337631 -0.0337631
-0.0212353 -0.0331043 -0.0219001
-0.0211642 -0.0330271 -3.6813e-07
-0.0212353 -0.0331043 0.0219003
-0.0211077 -0.0337632 0.0337633
-0.0212353 -0.0219001 -0.0331043
-0.0215012 -0.021846 -0.021846
-0.0214569 -0.0216825 -8.34975e-07
-0.0215012 -0.0218461 0.0218462
-0.0212353 -0.0219 0.0331043
-0.0211642 -3.67755e-07 -0.0330271
-0.0214569 -8.36206e-07 -0.0216825
-0.0214175 1.12789e-06 1.1258e-06
-0.021457 -1.17392e-06 0.0216814
-0.0211642 -3.65933e-07 0.033028
-0.0212353 0.0219003 -0.0331043
-0.0215012 0.0218462 -0.0218461
-0.021457 0.0216813 -1.17077e-06
-0.0215012 0.0218467 0.0218467
-0.0212353 0.0219002 0.0331042
-0.0211077 0.0337633 -0.0337632
-0.0212353 0.0331043 -0.0218999
-0.0211642 0.033028 -3.69352e-07
-0.0212353 0.0331042 0.0219002
-0.0211078 0.0337634 0.0337634
-0.00357254 -0.0321801 -0.03218
-0.00389056 -0.0314941 -0.0217219
-0.00389177 -0.0314305 1.22858e-06
-0.00389058 -0.0314941 0.0217195
-0.00357252 -0.03218 0.0321812
-0.00389058 -0.0217218 -0.0314941
-0.00420665 -0.0216202 -0.0216202
-0.00422274 -0.0214628 3.35692e-07
-0.00420666 -0.0216204 0.0216196
-0.00389059 -0.0217218 0.0314943
-0.00389177 1.22076e-06 -0.0314305
-0.00422274 3.13047e-07 -0.0214627
-0.00424477 2.16274e-08 2.64258e-08
-0.00422282 6.29204e-07 0.0214632
-0.00389179 1.22178e-06 0.0314303
-0.00389052 0.0217195 -0.0314941
-0.00420665 0.0216196 -0.0216204
-0.0042228 0.0214632 6.28557e-07
-0.00420663 0.0216194 0.0216194
-0.00389055 0.0217195 0.0314944
-0.00357252 0.0321812 -0.0321801
-0.00389058 0.0314943 -0.0217218
-0.00389177 0.0314303 1.22624e-06
-0.00389055 0.0314944 0.0217195
-0.00357256 0.0321812 0.0321812
0.00357214 -0.0321801 -0.03218
0.00389037 -0.0314941 -0.0217219
0.00389164 -0.0314305 1.39665e-06
0.00389039 -0.0314941 0.0217192
0.00357206 -0.0321801 0.0321813
0.00389037 -0.0217219 -0.0314941
0.00420634 -0.0216202 -0.0216202
0.00422278 -0.0214628 4.89008e-07
0.00420633 -0.0216202 0.0216194
0.00389036 -0.0217218 0.0314943
0.00389166 1.38023e-06 -0.0314305
0.00422279 4.63302e-07 -0.0214628
0.00424526 -1.22253e-07 -1.11772e-07
0.00422281 4.60344e-07 0.0214634
0.00389165 1.37231e-06 0.0314303
0.00389039 0.0217192 -0.031494
0.00420634 0.0216194 -0.0216204
0.0042228 0.0214634 6.45475e-07
0.00420636 0.0216194 0.0216194
0.00389043 0.0217192 0.0314944
0.00357208 0.0321813 -0.0321801
0.00389039 0.0314944 -0.0217218
0.00389167 0.0314303 1.37305e-06
0.00389043 0.0314944 0.0217192
0.00357215 0.0321813 0.0321813
0.0211083 -0.0337632 -0.0337631
0.0212351 -0.0331043 -0.0219001
0.0211645 -0.0330271 -3.64181e-07
0.0212352 -0.0331043 0.0219002
0.0211084 -0.0337635 0.0337634
0.0212351 -0.0219 -0.0331043
0.0215004 -0.0218461 -0.0218461
0.0214569 -0.0216825 -8.26603e-07
0.0215004 -0.0218461 0.0218462
0.0212352 -0.0218993 0.0331043
0.0211645 -3.67359e-07 -0.0330271
0.0214569 -8.32295e-07 -0.0216825
0.0214191 1.27227e-06 1.29699e-06
0.0214568 -1.17574e-06 0.0216812
0.0211645 -7.23834e-07 0.0330281
0.0212351 0.0219002 -0.0331043
0.0215004 0.0218462 -0.0218461
0.0214568 0.0216812 -1.17484e-06
0.0215004 0.0218467 0.0218467
0.0212352 0.0219002 0.0331042
0.0211084 0.0337634 -0.0337635
0.0212352 0.0331043 -0.0218993
0.0211645 0.0330281 -7.19105e-07
0.0212352 0.0331042 0.0219002
0.0211084 0.0337634 0.0337634
-0.0211088 -0.0337631 -0.0337631
-0.0212358 -0.033104 -0.0219001
-0.0211661 -0.0330272 -3.82894e-07
-0.0212358 -0.033104 0.0219002
-0.0211088 -0.0337632 0.0337634
-0.0212358 -0.0219001 -0.033104
-0.0215017 -0.0218463 -0.0218463
-0.021454 -0.0216823 -8.58392e-07
-0.0215017 -0.0218463 0.0218466
-0.0212358 -0.0219001 0.0331041
-0.0211661 -3.87182e-07 -0.0330272
-0.0214539 -8.54735e-07 -0.0216822
-0.0214207 1.14065e-06 1.13175e-06
-0.0214541 -8.51275e-07 0.0216812
-0.021166 -3.77644e-07 0.0330281
-0.0212358 0.0219002 -0.033104
-0.0215018 0.0218466 -0.0218464
-0.0214538 0.0216811 -1.16561e-06
-0.0215018 0.0218466 0.021847
-0.0212358 0.0219002 0.0331039
-0.0211089 0.0337634 -0.0337632
-0.0212358 0.033104 -0.0219001
-0.0211661 0.0330281 -3.87728e-07
-0.0212358 0.0331041 0.0219003
-0.0211089 0.0337634 0.0337634
-0.00356755 -0.0321801 -0.0321801
-0.00389098 -0.0314941 -0.0217221
-0.00389299 -0.0314303 1.37711e-06
-0.00389089 -0.0314941 0.0217195
-0.00356756 -0.0321801 0.0321813
-0.00389088 -0.0217221 -0.0314941
-0.00421158 -0.0216202 -0.0216202
-0.00421879 -0.0214629 3.4697e-07
-0.0042115 -0.0216201 0.0216195
-0.003891 -0.021722 0.0314943
-0.00389299 1.38134e-06 -0.0314303
-0.00421871 3.51292e-07 -0.021463
-0.00424415 1.9511e-07 2.09117e-07
-0.00421861 4.81348e-07 0.0214631
-0.00389296 1.36698e-06 0.0314302
-0.00389089 0.0217195 -0.031494
-0.00421166 0.0216195 -0.0216204
-0.0042187 0.0214631 6.29725e-07
-0.00421157 0.0216193 0.0216193
-0.00389091 0.0217195 0.0314944
-0.00356756 0.0321813 -0.0321801
-0.003891 0.0314943 -0.0217221
-0.00389299 0.0314302 1.22221e-06
-0.00389091 0.0314944 0.0217196
-0.00356757 0.0321813 0.0321813
0.0035675 -0.0321801 -0.0321801
0.00389432 -0.0314939 -0.0217217
0.00389474 -0.0314303 1.54821e-06
0.00389413 -0.031494 0.0217189
0.00356751 -0.0321801 0.0321814
0.00389432 -0.0217217 -0.0314939
0.00421012 -0.0216203 -0.0216203
0.0042226 -0.021463 3.35207e-07
0.00421009 -0.0216203 0.0216198
0.00389436 -0.0217216 0.0314941
0.00389474 1.35328e-06 -0.0314303
0.0042226 3.32359e-07 -0.021463
0.00423767 -2.9519e-07 -2.84647e-07
0.00422235 3.36281e-07 0.0214639
0.00389474 1.36556e-06 0.03143
0.00389413 0.0217192 -0.0314939
0.00421009 0.0216198 -0.0216203
0.00422257 0.0214639 3.37032e-07
0.00421007 0.0216197 0.0216197
0.00389416 0.0217191 0.0314941
0.00356751 0.0321813 -0.0321801
0.00389435 0.0314941 -0.0217216
0.00389474 0.03143 1.36966e-06
0.00389417 0.0314942 0.0217192
0.00356752 0.0321813 0.0321813
0.0211107 -0.0337629 -0.0337629
0.0212322 -0.0331042 -0.0218999
0.0211617 -0.033027 -3.66396e-07
0.0212323 -0.0331042 0.0219002
0.0211108 -0.033763 0.0337631
0.0212322 -0.0218998 -0.0331042
0.0214975 -0.0218464 -0.0218464
0.0214617 -0.0216827 -9.97985e-07
0.0214975 -0.0218464 0.0218465
0.0212322 -0.0218998 0.0331043
0.0211617 -3.68137e-07 -0.033027
0.0214617 -1.0285e-06 -0.0216827
0.021413 1.43994e-06 1.46199e-06
0.0214617 -1.18712e-06 0.0216814
0.0211617 -3.66182e-07 0.0330281
0.0212323 0.0219002 -0.0331042
0.0214975 0.0218465 -0.0218464
0.0214617 0.0216814 -1.18648e-06
0.0214976 0.0218468 0.0218468
0.0212323 0.0219001 0.0331041
0.0211108 0.0337631 -0.033763
0.0212322 0.0331042 -0.0218998
0.0211617 0.0330281 -3.67884e-07
0.0212323 0.0331041 0.0219001
0.0211109 0.0337632 0.0337632
SCALARS mass float 1
LOOKUP_TABLE default
1
1
1
1
1
1
1
1
1
1
1
1
1
1
1
1
1
1
1
1
1
1
1
1
1
1
1
1
1
1
1
1
1
1
1
1
1
1
1
1
1
1
1
1
1
1
1
1
1
1
1
1
1
1
1
1
1
1
1
1
1
1
1
1
1
1
1
1
1
1
1
1
1
1
1
1
1
1
1
1
1
1
1
1
1
1
1
1
1
1
1
1
1
1
1
1
1
1
1
1
1
1
1
1
1
1
1
1
1
1
1
1
1
1
1
1
1
1
1
1
1
1
1
1
1
1
1
1
1
1
1
1
1
1
1
1
1
1
1
1
1
1
1
1
1
1
1
1
1
1
1
1
1
1
1
1
1
1
1
1
1
1
1
1
1
1
1
1
1
1
1
1
1
1
1
1
1
1
1
1
1
1
1
1
1
1
1
1
1
1
1
1
1
1
1
1
1
1
1
1
