# vtk DataFile Version 3.0
Molecular Dynamics Particle Data
ASCII
DATASET POLYDATA
POINTS 200 float
0.497055 0.497054 0.497054
0.496908 0.496908 0.599873
0.496902 0.496902 0.7
0.496908 0.496908 0.800127
0.497055 0.497054 0.902946
0.496908 0.599873 0.496908
0.49674 0.59986 0.59986
0.496733 0.599859 0.7
0.49674 0.59986 0.80014
0.496908 0.599873 0.903092
0.496902 0.7 0.496902
0.496733 0.7 0.599859
0.496725 0.7 0.7
0.496733 0.7 0.800141
0.496902 0.7 0.903098
0.496908 0.800127 0.496908
0.49674 0.80014 0.59986
0.496733 0.800141 0.7
0.49674 0.80014 0.80014
0.496908 0.800127 0.903092
0.497055 0.902946 0.497054
0.496908 0.903092 0.599873
0.496902 0.903098 0.7
0.496908 0.903092 0.800127
0.497055 0.902946 0.902946
0.599878 0.496908 0.496908
0.599865 0.49674 0.59986
0.599864 0.496733 0.7
0.599865 0.49674 0.800139
0.599878 0.496908 0.903092
0.599865 0.59986 0.49674
0.599851 0.599845 0.599845
0.599849 0.599843 0.7
0.599851 0.599845 0.800155
0.599865 0.59986 0.90326
0.599864 0.7 0.496733
0.599849 0.7 0.599843
0.599847 0.7 0.7
0.599849 0.7 0.800157
0.599864 0.7 0.903267
0.599865 0.800139 0.49674
0.599851 0.800155 0.599845
0.599849 0.800157 0.7
0.599851 0.800155 0.800155
0.599865 0.800139 0.90326
0.599878 0.903092 0.496908
0.599865 0.90326 0.59986
0.599864 0.903267 0.7
0.599865 0.90326 0.800139
0.599878 0.903092 0.903092
0.700122 0.496908 0.496908
0.700135 0.49674 0.59986
0.700136 0.496733 0.7
0.700135 0.49674 0.800139
0.700122 0.496908 0.903092
0.700135 0.59986 0.49674
0.700149 0.599845 0.599845
0.700151 0.599843 0.7
0.700149 0.599845 0.800155
0.700135 0.59986 0.90326
0.700136 0.7 0.496733
0.700151 0.7 0.599843
0.700153 0.7 0.7
0.700151 0.7 0.800157
0.700136 0.7 0.903267
0.700135 0.800139 0.49674
0.700149 0.800155 0.599845
0.700151 0.800157 0.7
0.700149 0.800155 0.800155
0.700135 0.800139 0.90326
0.700122 0.903092 0.496908
0.700135 0.90326 0.59986
0.700136 0.903267 0.7
0.700135 0.90326 0.800139
0.700122 0.903092 0.903092
0.802946 0.497054 0.497054
0.803092 0.496908 0.599873
0.803098 0.496902 0.7
0.803092 0.496908 0.800127
0.802946 0.497054 0.902946
0.803092 0.599873 0.496908
0.80326 0.59986 0.59986
0.803267 0.599859 0.7
0.80326 0.59986 0.80014
0.803092 0.599873 0.903092
0.803098 0.7 0.496902
0.803267 0.7 0.599859
0.803275 0.7 0.7
0.803267 0.7 0.800141
0.803098 0.7 0.903098
0.803092 0.800127 0.496908
0.80326 0.80014 0.59986
0.803267 0.800141 0.7
0.80326 0.80014 0.80014
0.803092 0.800127 0.903092
0.802946 0.902946 0.497054
0.803092 0.903092 0.599873
0.803098 0.903098 0.7
0.803092 0.903092 0.800127
0.802946 0.902946 0.902946
1.99706 0.497054 0.497054
1.99691 0.496908 0.599873
1.9969 0.496902 0.7
1.99691 0.496908 0.800127
1.99706 0.497054 0.902946
1.99691 0.599873 0.496908
1.99674 0.59986 0.59986
1.99673 0.599859 0.7
1.99674 0.59986 0.80014
1.99691 0.599873 0.903092
1.9969 0.7 0.496902
1.99673 0.7 0.599859
1.99673 0.7 0.7
1.99673 0.7 0.800141
1.9969 0.7 0.903098
1.99691 0.800127 0.496908
1.99674 0.80014 0.59986
1.99673 0.800141 0.7
1.99674 0.80014 0.80014
1.99691 0.800127 0.903092
1.99706 0.902946 0.497054
1.99691 0.903092 0.599873
1.9969 0.903098 0.7
1.99691 0.903092 0.800127
1.99706 0.902946 0.902946
2.09988 0.496908 0.496908
2.09987 0.49674 0.59986
2.09986 0.496733 0.7
2.09987 0.49674 0.800139
2.09988 0.496908 0.903092
2.09987 0.59986 0.49674
2.09985 0.599845 0.599845
2.09985 0.599843 0.7
2.09985 0.599845 0.800155
2.09987 0.59986 0.90326
2.09986 0.7 0.496733
2.09985 0.7 0.599843
2.09985 0.7 0.7
2.09985 0.7 0.800157
2.09986 0.7 0.903267
2.09987 0.800139 0.49674
2.09985 0.800155 0.599845
2.09985 0.800157 0.7
2.09985 0.800155 0.800155
2.09987 0.800139 0.90326
2.09988 0.903092 0.496908
2.09987 0.90326 0.59986
2.09986 0.903267 0.7
2.09987 0.90326 0.800139
2.09988 0.903092 0.903092
2.20012 0.496908 0.496908
2.20013 0.49674 0.59986
2.20014 0.496733 0.7
2.20013 0.49674 0.800139
2.20012 0.496908 0.903092
2.20013 0.59986 0.49674
2.20015 0.599845 0.599845
2.20015 0.599843 0.7
2.20015 0.599845 0.800155
2.20013 0.59986 0.90326
2.20014 0.7 0.496733
2.20015 0.7 0.599843
2.20015 0.7 0.7
2.20015 0.7 0.800157
2.20014 0.7 0.903267
2.20013 0.800139 0.49674
2.20015 0.800155 0.599845
2.20015 0.800157 0.7
2.20015 0.800155 0.800155
2.20013 0.800139 0.90326
2.20012 0.903092 0.496908
2.20013 0.90326 0.59986
2.20014 0.903267 0.7
2.20013 0.90326 0.800139
2.20012 0.903092 0.903092
2.30295 0.497054 0.497054
2.30309 0.496908 0.599873
2.3031 0.496902 0.7
2.30309 0.496908 0.800127
2.30295 0.497054 0.902946
2.30309 0.599873 0.496908
2.30326 0.59986 0.59986
2.30327 0.599859 0.7
2.30326 0.59986 0.80014
2.30309 0.599873 0.903092
2.3031 0.7 0.496902
2.30327 0.7 0.599859
2.30327 0.7 0.7
2.30327 0.7 0.800141
2.3031 0.7 0.903098
2.30309 0.800127 0.496908
2.30326 0.80014 0.59986
2.30327 0.800141 0.7
2.30326 0.80014 0.80014
2.30309 0.800127 0.903092
2.30295 0.902946 0.497054
2.30309 0.903092 0.599873
2.3031 0.903098 0.7
2.30309 0.903092 0.800127
2.30295 0.902946 0.902946
VERTICES 200 400
1 0
1 1
1 2
1 3
1 4
1 5
1 6
1 7
1 8
1 9
1 10
1 11
1 12
1 13
1 14
1 15
1 16
1 17
1 18
1 19
1 20
1 21
1 22
1 23
1 24
1 25
1 26
1 27
1 28
1 29
1 30
1 31
1 32
1 33
1 34
1 35
1 36
1 37
1 38
1 39
1 40
1 41
1 42
1 43
1 44
1 45
1 46
1 47
1 48
1 49
1 50
1 51
1 52
1 53
1 54
1 55
1 56
1 57
1 58
1 59
1 60
1 61
1 62
1 63
1 64
1 65
1 66
1 67
1 68
1 69
1 70
1 71
1 72
1 73
1 74
1 75
1 76
1 77
1 78
1 79
1 80
1 81
1 82
1 83
1 84
1 85
1 86
1 87
1 88
1 89
1 90
1 91
1 92
1 93
1 94
1 95
1 96
1 97
1 98
1 99
1 100
1 101
1 102
1 103
1 104
1 105
1 106
1 107
1 108
1 109
1 110
1 111
1 112
1 113
1 114
1 115
1 116
1 117
1 118
1 119
1 120
1 121
1 122
1 123
1 124
1 125
1 126
1 127
1 128
1 129
1 130
1 131
1 132
1 133
1 134
1 135
1 136
1 137
1 138
1 139
1 140
1 141
1 142
1 143
1 144
1 145
1 146
1 147
1 148
1 149
1 150
1 151
1 152
1 153
1 154
1 155
1 156
1 157
1 158
1 159
1 160
1 161
1 162
1 163
1 164
1 165
1 166
1 167
1 168
1 169
1 170
1 171
1 172
1 173
1 174
1 175
1 176
1 177
1 178
1 179
1 180
1 181
1 182
1 183
1 184
1 185
1 186
1 187
1 188
1 189
1 190
1 191
1 192
1 193
1 194
1 195
1 196
1 197
1 198
1 199
POINT_DATA 200
VECTORS velocity float
-0.0568249 -0.0568327 -0.0568327
-0.0596286 -0.0596378 -0.00438698
-0.0597826 -0.0597929 2.62551e-07
-0.0596286 -0.0596378 0.0043874
-0.0568248 -0.0568327 0.0568323
-0.0596286 -0.00438698 -0.0596378
-0.0628497 -0.00476287 -0.00476287
-0.0630354 -0.00479996 2.6256e-07
-0.0628497 -0.00476289 0.00476209
-0.0596286 -0.00438698 0.0596382
-0.0597826 2.63201e-07 -0.0597929
-0.0630354 2.62605e-07 -0.00479996
-0.063226 6.33194e-08 6.21368e-08
-0.0630354 2.63479e-07 0.00479968
-0.0597825 2.63454e-07 0.0597931
-0.0596286 0.0043874 -0.0596378
-0.0628497 0.00476209 -0.0047629
-0.0630354 0.00479968 2.62577e-07
-0.0628497 0.00476212 0.00476212
-0.0596286 0.0043874 0.0596382
-0.0568248 0.0568323 -0.0568327
-0.0596286 0.0596382 -0.00438698
-0.0597825 0.0597931 2.62224e-07
-0.0596286 0.0596382 0.0043874
-0.0568248 0.0568323 0.0568323
-0.00422565 -0.0596282 -0.0596282
-0.0045715 -0.0628494 -0.00475885
-0.00460514 -0.0630356 3.19792e-08
-0.00457152 -0.0628494 0.00475889
-0.00422564 -0.0596282 0.0596281
-0.0045715 -0.00475885 -0.0628494
-0.00498145 -0.00520358 -0.00520359
-0.005023 -0.00525022 1.03132e-07
-0.00498146 -0.00520359 0.00520286
-0.0045715 -0.00475886 0.0628498
-0.00460514 3.24944e-08 -0.0630356
-0.00502299 1.02542e-07 -0.00525022
-0.00506587 2.65328e-07 2.64536e-07
-0.00502299 1.0344e-07 0.0052499
-0.00460522 3.27261e-08 0.0630359
-0.00457152 0.00475889 -0.0628494
-0.00498146 0.00520286 -0.00520359
-0.00502299 0.0052499 1.02762e-07
-0.00498146 0.00520286 0.00520286
-0.00457152 0.00475889 0.0628498
-0.00422564 0.0596281 -0.0596282
-0.0045715 0.0628498 -0.00475886
-0.00460522 0.0630359 3.19982e-08
-0.00457152 0.0628498 0.00475889
-0.00422563 0.0596281 0.0596281
0.00422613 -0.0596282 -0.0596282
0.00457152 -0.0628494 -0.00475886
0.0046054 -0.0630356 3.18927e-08
0.00457154 -0.0628494 0.0047589
0.00422612 -0.0596282 0.0596281
0.00457152 -0.00475886 -0.0628494
0.00498099 -0.00520358 -0.00520359
0.00502314 -0.00525021 1.03044e-07
0.00498099 -0.00520358 0.00520286
0.00457152 -0.00475887 0.0628498
0.0046054 3.24851e-08 -0.0630356
0.00502314 1.0256e-07 -0.00525021
0.00506631 2.65383e-07 2.64418e-07
0.00502314 1.03366e-07 0.00524989
0.0046054 3.26462e-08 0.0630359
0.00457154 0.00475889 -0.0628494
0.00498099 0.00520286 -0.00520359
0.00502314 0.00524989 1.02818e-07
0.004981 0.00520286 0.00520286
0.00457154 0.0047589 0.0628499
0.00422613 0.0596281 -0.0596282
0.00457152 0.0628498 -0.00475887
0.0046054 0.0630359 3.18058e-08
0.00457154 0.0628498 0.0047589
0.00422612 0.0596281 0.0596281
0.0568245 -0.0568327 -0.0568327
0.0596285 -0.0596378 -0.00438698
0.0597824 -0.0597929 2.62366e-07
0.0596285 -0.0596378 0.0043874
0.0568245 -0.0568326 0.0568323
0.0596285 -0.00438698 -0.0596378
0.0628499 -0.00476287 -0.00476287
0.0630354 -0.00479996 2.62406e-07
0.0628499 -0.0047629 0.0047621
0.0596285 -0.00438705 0.0596382
0.0597824 2.6337e-07 -0.0597929
0.0630354 2.62587e-07 -0.00479996
0.0632257 6.32379e-08 6.21716e-08
0.0630354 2.6338e-07 0.00479968
0.0597824 2.63261e-07 0.0597931
0.0596285 0.0043874 -0.0596378
0.0628499 0.0047621 -0.0047629
0.0630354 0.00479968 2.62556e-07
0.0628499 0.00476212 0.00476212
0.0596285 0.0043874 0.0596382
0.0568245 0.0568323 -0.0568326
0.0596285 0.0596382 -0.00438705
0.0597824 0.0597931 2.62241e-07
0.0596285 0.0596382 0.0043874
0.0568245 0.0568322 0.0568322
-0.0568243 -0.0568327 -0.0568327
-0.0596276 -0.0596378 -0.00438699
-0.0597818 -0.0597929 2.62524e-07
-0.0596276 -0.0596378 0.00438741
-0.0568243 -0.0568327 0.0568323
-0.0596276 -0.00438699 -0.0596378
-0.0628496 -0.00476286 -0.00476286
-0.0630344 -0.00479996 2.62489e-07
-0.0628496 -0.00476289 0.00476209
-0.0596276 -0.00438698 0.0596382
-0.0597818 2.63199e-07 -0.0597929
-0.0630344 2.62549e-07 -0.00479996
-0.0632257 6.33866e-08 6.23281e-08
-0.0630344 2.63459e-07 0.00479969
-0.0597818 2.63566e-07 0.0597931
-0.0596276 0.00438741 -0.0596378
-0.0628496 0.00476209 -0.00476289
-0.0630344 0.00479968 2.62727e-07
-0.0628496 0.00476211 0.00476211
-0.0596276 0.00438741 0.0596382
-0.0568243 0.0568323 -0.0568327
-0.0596276 0.0596382 -0.00438698
-0.0597818 0.0597931 2.62209e-07
-0.0596276 0.0596382 0.00438741
-0.0568243 0.0568323 0.0568323
-0.00422881 -0.0596282 -0.0596282
-0.00457476 -0.0628494 -0.00475883
-0.00460793 -0.0630356 3.22155e-08
-0.00457478 -0.0628494 0.00475887
-0.0042288 -0.0596282 0.0596281
-0.00457476 -0.00475883 -0.0628494
-0.00498193 -0.00520361 -0.00520361
-0.00502665 -0.00525025 1.02971e-07
-0.00498193 -0.00520361 0.00520288
-0.00457475 -0.00475884 0.0628498
-0.00460792 3.25598e-08 -0.0630356
-0.00502665 1.02787e-07 -0.00525025
-0.00506811 2.65254e-07 2.64482e-07
-0.00502665 1.03322e-07 0.00524993
-0.00460793 3.28878e-08 0.0630359
-0.00457478 0.00475887 -0.0628494
-0.00498193 0.00520288 -0.00520361
-0.00502665 0.00524993 1.02985e-07
-0.00498194 0.00520288 0.00520289
-0.00457478 0.00475888 0.0628498
-0.00422879 0.0596281 -0.0596282
-0.00457475 0.0628498 -0.00475884
-0.00460793 0.0630359 3.21942e-08
-0.00457477 0.0628498 0.00475888
-0.00422879 0.0596281 0.0596281
0.00423037 -0.0596282 -0.0596282
0.00457365 -0.0628494 -0.00475888
0.00460777 -0.0630356 3.19846e-08
0.00457367 -0.0628494 0.00475891
0.00423037 -0.0596282 0.0596281
0.00457365 -0.00475888 -0.0628494
0.00498104 -0.0052036 -0.00520361
0.0050258 -0.00525025 1.03476e-07
0.00498105 -0.00520361 0.00520288
0.00457365 -0.00475888 0.0628498
0.00460777 3.25422e-08 -0.0630356
0.0050258 1.0274e-07 -0.00525025
0.00506794 2.65128e-07 2.64223e-07
0.0050258 1.0343e-07 0.00524993
0.00460778 3.28183e-08 0.0630359
0.00457367 0.00475891 -0.0628494
0.00498105 0.00520288 -0.00520361
0.0050258 0.00524993 1.02999e-07
0.00498106 0.00520288 0.00520288
0.00457367 0.00475892 0.0628499
0.00423037 0.0596281 -0.0596282
0.00457365 0.0628499 -0.00475888
0.00460778 0.0630359 3.18569e-08
0.00457367 0.0628499 0.00475892
0.00423036 0.0596281 0.0596281
0.0568233 -0.0568327 -0.0568327
0.0596283 -0.0596378 -0.00438699
0.0597823 -0.0597929 2.62171e-07
0.0596283 -0.0596378 0.00438741
0.0568233 -0.0568327 0.0568323
0.0596283 -0.00438699 -0.0596378
0.0628506 -0.00476286 -0.00476287
0.0630351 -0.00479996 2.62791e-07
0.0628506 -0.00476289 0.00476209
0.0596283 -0.00438698 0.0596382
0.0597823 2.63335e-07 -0.0597929
0.0630351 2.62499e-07 -0.00479996
0.0632261 6.32624e-08 6.22343e-08
0.0630351 2.63356e-07 0.00479968
0.0597823 2.63439e-07 0.0597931
0.0596283 0.00438741 -0.0596379
0.0628506 0.00476209 -0.00476289
0.0630351 0.00479968 2.62795e-07
0.0628506 0.00476211 0.00476211
0.0596283 0.00438741 0.0596382
0.0568233 0.0568323 -0.0568327
0.0596283 0.0596382 -0.00438698
0.0597823 0.0597931 2.62062e-07
0.0596283 0.0596382 0.0043874
0.0568233 0.0568322 0.0568322
VECTORS force float
-0.490941 -0.491134 -0.491134
-0.514453 -0.514687 -0.111109
-0.517247 -0.5175 2.59106e-06
-0.514453 -0.514687 0.111118
-0.49094 -0.491134 0.491124
-0.514453 -0.111109 -0.514687
-0.541672 -0.118755 -0.118755
-0.544929 -0.1196 2.38683e-06
-0.541672 -0.118755 0.118752
-0.514453 -0.111109 0.514687
-0.517247 2.55879e-06 -0.5175
-0.544929 2.38031e-06 -0.1196
-0.548274 1.67796e-07 1.2336e-07
-0.544929 2.34628e-06 0.119601
-0.517246 2.64375e-06 0.517498
-0.514453 0.111118 -0.514687
-0.541672 0.118752 -0.118755
-0.544929 0.119601 2.37311e-06
-0.541672 0.118752 0.118752
-0.514453 0.111118 0.514687
-0.49094 0.491125 -0.491134
-0.514453 0.514688 -0.111109
-0.517246 0.517498 2.61128e-06
-0.514453 0.514688 0.111118
-0.49094 0.491124 0.491124
-0.105357 -0.514482 -0.514482
-0.112236 -0.541709 -0.118676
-0.112994 -0.544979 -2.50999e-06
-0.112236 -0.541709 0.118688
-0.105357 -0.514481 0.514473
-0.112236 -0.118676 -0.541709
-0.120154 -0.127505 -0.127505
-0.121058 -0.128521 7.92166e-08
-0.120155 -0.127506 0.127498
-0.112236 -0.118676 0.541711
-0.112995 -2.49379e-06 -0.544979
-0.121058 1.46647e-07 -0.128521
-0.121968 2.63923e-06 2.61562e-06
-0.121058 8.74293e-09 0.128519
-0.112996 -2.58909e-06 0.544982
-0.112236 0.118688 -0.541709
-0.120155 0.127498 -0.127506
-0.121058 0.128519 4.7673e-08
-0.120155 0.127498 0.127498
-0.112236 0.118689 0.541712
-0.105357 0.514472 -0.514481
-0.112236 0.541712 -0.118676
-0.112996 0.544982 -2.50641e-06
-0.112236 0.541712 0.118689
-0.105357 0.514472 0.514472
0.105365 -0.514481 -0.514481
0.112242 -0.541709 -0.118676
0.113003 -0.544979 -2.52327e-06
0.112242 -0.541709 0.118689
0.105365 -0.514481 0.514472
0.112242 -0.118676 -0.541709
0.120149 -0.127506 -0.127506
0.121061 -0.128521 7.74712e-08
0.12015 -0.127506 0.127498
0.112242 -0.118676 0.541712
0.113003 -2.51867e-06 -0.544979
0.12106 1.40066e-07 -0.128521
0.121978 2.60189e-06 2.63792e-06
0.12106 2.25719e-09 0.128519
0.113003 -2.61421e-06 0.544982
0.112242 0.118689 -0.541709
0.12015 0.127498 -0.127506
0.121061 0.128519 4.536e-08
0.12015 0.127498 0.127499
0.112242 0.118689 0.541712
0.105365 0.514472 -0.514481
0.112242 0.541712 -0.118676
0.113003 0.544982 -2.51741e-06
0.112242 0.541712 0.118689
0.105365 0.514472 0.514472
0.490933 -0.491134 -0.491134
0.514448 -0.514687 -0.111109
0.51724 -0.5175 2.57833e-06
0.514447 -0.514687 0.111118
0.490933 -0.491133 0.491124
0.514448 -0.111109 -0.514687
0.541671 -0.118755 -0.118755
0.544929 -0.1196 2.38757e-06
0.541672 -0.118755 0.118752
0.514448 -0.11111 0.514688
0.51724 2.59263e-06 -0.5175
0.544929 2.38353e-06 -0.1196
0.548267 1.78734e-07 1.53421e-07
0.544929 2.34749e-06 0.119601
0.51724 2.62984e-06 0.517498
0.514447 0.111118 -0.514687
0.541672 0.118752 -0.118755
0.544929 0.119601 2.3737e-06
0.541672 0.118752 0.118752
0.514447 0.111118 0.514688
0.490933 0.491124 -0.491133
0.514448 0.514688 -0.11111
0.51724 0.517498 2.59189e-06
0.514447 0.514688 0.111118
0.490932 0.491124 0.491124
-0.490942 -0.491134 -0.491134
-0.514457 -0.514688 -0.111109
-0.517254 -0.5175 2.60269e-06
-0.514457 -0.514688 0.111119
-0.490942 -0.491134 0.491125
-0.514457 -0.111109 -0.514688
-0.5417 -0.118754 -0.118754
-0.54493 -0.1196 2.38585e-06
-0.5417 -0.118754 0.118751
-0.514457 -0.111109 0.514688
-0.517253 2.54671e-06 -0.5175
-0.54493 2.38297e-06 -0.1196
-0.548293 1.69838e-07 1.3395e-07
-0.54493 2.34648e-06 0.119601
-0.517253 2.6484e-06 0.517498
-0.514457 0.111118 -0.514688
-0.5417 0.118751 -0.118755
-0.54493 0.119601 2.37259e-06
-0.5417 0.118752 0.118752
-0.514457 0.111118 0.514688
-0.490942 0.491125 -0.491134
-0.514457 0.514688 -0.111109
-0.517253 0.517498 2.60768e-06
-0.514457 0.514688 0.111118
-0.490941 0.491125 0.491125
-0.105377 -0.514481 -0.514481
-0.112236 -0.541709 -0.118676
-0.112991 -0.54498 -2.52013e-06
-0.112236 -0.541709 0.118688
-0.105376 -0.514481 0.514472
-0.112236 -0.118676 -0.541709
-0.12009 -0.127507 -0.127507
-0.121096 -0.128522 1.87921e-08
-0.120091 -0.127507 0.1275
-0.112236 -0.118676 0.541711
-0.112991 -2.50465e-06 -0.54498
-0.121096 1.42965e-07 -0.128522
-0.121968 2.64577e-06 2.6236e-06
-0.121096 7.52141e-09 0.128521
-0.112991 -2.60153e-06 0.544983
-0.112236 0.118688 -0.541709
-0.120091 0.1275 -0.127507
-0.121096 0.128521 4.49963e-08
-0.120091 0.1275 0.1275
-0.112236 0.118689 0.541712
-0.105376 0.514472 -0.514481
-0.112236 0.541712 -0.118676
-0.112991 0.544983 -2.57604e-06
-0.112236 0.541712 0.118689
-0.105376 0.514472 0.514472
0.1054 -0.514482 -0.514482
0.112213 -0.541708 -0.118677
0.11299 -0.54498 -2.53104e-06
0.112213 -0.541709 0.118689
0.105399 -0.514482 0.514473
0.112213 -0.118677 -0.541708
0.120102 -0.127506 -0.127506
0.12111 -0.128521 7.24729e-08
0.120102 -0.127506 0.127499
0.112213 -0.118677 0.541711
0.11299 -2.50505e-06 -0.54498
0.12111 1.4668e-07 -0.128521
0.121985 2.60369e-06 2.63903e-06
0.12111 3.84068e-09 0.12852
0.11299 -2.60285e-06 0.544982
0.112213 0.118689 -0.541709
0.120102 0.127499 -0.127506
0.12111 0.12852 3.50982e-08
0.120102 0.127499 0.127499
0.112213 0.118689 0.541711
0.105399 0.514473 -0.514482
0.112213 0.541711 -0.118677
0.11299 0.544982 -2.52658e-06
0.112213 0.541711 0.118689
0.105399 0.514473 0.514473
0.490929 -0.491134 -0.491134
0.514468 -0.514688 -0.111109
0.51726 -0.5175 2.57833e-06
0.514468 -0.514688 0.111118
0.490929 -0.491134 0.491124
0.514468 -0.111109 -0.514689
0.541696 -0.118754 -0.118754
0.544919 -0.1196 2.38757e-06
0.541696 -0.118755 0.118752
0.514468 -0.111109 0.514689
0.517259 2.59263e-06 -0.5175
0.544919 2.38307e-06 -0.1196
0.548272 1.78734e-07 1.5345e-07
0.544919 2.34749e-06 0.119601
0.517259 2.62984e-06 0.517498
0.514468 0.111118 -0.514689
0.541696 0.118751 -0.118754
0.544919 0.119601 2.3737e-06
0.541696 0.118752 0.118752
0.514468 0.111118 0.514689
0.490929 0.491124 -0.491134
0.514468 0.514689 -0.111109
0.51726 0.517498 2.59189e-06
0.514468 0.514689 0.111118
0.490929 0.491124 0.491124
SCALARS mass float 1
LOOKUP_TABLE default
1
1
1
1
1
1
1
1
1
1
1
1
1
1
1
1
1
1
1
1
1
1
1
1
1
1
1
1
1
1
1
1
1
1
1
1
1
1
1
1
1
1
1
1
1
1
1
1
1
1
1
1
1
1
1
1
1
1
1
1
1
1
1
1
1
1
1
1
1
1
1
1
1
1
1
1
1
1
1
1
1
1
1
1
1
1
1
1
1
1
1
1
1
1
1
1
1
1
1
1
1
1
1
1
1
1
1
1
1
1
1
1
1
1
1
1
1
1
1
1
1
1
1
1
1
1
1
1
1
1
1
1
1
1
1
1
1
1
1
1
1
1
1
1
1
1
1
1
1
1
1
1
1
1
1
1
1
1
1
1
1
1
1
1
1
1
1
1
1
1
1
1
1
1
1
1
1
1
1
1
1
1
1
1
1
1
1
1
1
1
1
1
1
1
1
1
1
1
1
1
