# vtk DataFile Version 3.0
Molecular Dynamics Particle Data
ASCII
DATASET POLYDATA
POINTS 200 float
0.465802 0.465677 0.465677
0.464184 0.464048 0.589475
0.463962 0.463822 0.7
0.464184 0.464048 0.810525
0.465802 0.465677 0.934322
0.464184 0.589475 0.464048
0.462308 0.588926 0.588926
0.462049 0.588817 0.7
0.462308 0.588926 0.811073
0.464184 0.589475 0.935951
0.463962 0.7 0.463822
0.462049 0.7 0.588817
0.461782 0.7 0.7
0.462049 0.7 0.811183
0.463962 0.7 0.936179
0.464184 0.810525 0.464048
0.462308 0.811073 0.588926
0.462049 0.811183 0.7
0.462308 0.811073 0.811073
0.464184 0.810525 0.935951
0.465802 0.934322 0.465677
0.464184 0.935951 0.589475
0.463962 0.936179 0.7
0.464184 0.935951 0.810525
0.465802 0.934322 0.934322
0.591442 0.464089 0.464089
0.591022 0.462207 0.58895
0.590943 0.461945 0.7
0.591022 0.462207 0.81105
0.591442 0.464089 0.935911
0.591022 0.58895 0.462207
0.590546 0.588329 0.588329
0.590455 0.588204 0.7
0.590546 0.588329 0.811671
0.591022 0.58895 0.937793
0.590943 0.7 0.461945
0.590455 0.7 0.588204
0.59036 0.7 0.7
0.590455 0.7 0.811796
0.590943 0.7 0.938054
0.591022 0.81105 0.462207
0.590546 0.811671 0.588329
0.590455 0.811796 0.7
0.590546 0.811671 0.811671
0.591022 0.81105 0.937793
0.591442 0.935911 0.464089
0.591022 0.937793 0.58895
0.590943 0.938054 0.7
0.591022 0.937793 0.81105
0.591442 0.935911 0.935911
0.708558 0.464089 0.464089
0.708978 0.462207 0.58895
0.709058 0.461945 0.7
0.708978 0.462207 0.81105
0.708558 0.464089 0.935911
0.708978 0.58895 0.462207
0.709453 0.588329 0.588329
0.709545 0.588204 0.7
0.709453 0.588329 0.811671
0.708978 0.58895 0.937793
0.709058 0.7 0.461945
0.709545 0.7 0.588204
0.709641 0.7 0.7
0.709545 0.7 0.811796
0.709058 0.7 0.938054
0.708978 0.81105 0.462207
0.709453 0.811671 0.588329
0.709545 0.811796 0.7
0.709453 0.811671 0.811671
0.708978 0.81105 0.937793
0.708558 0.935911 0.464089
0.708978 0.937793 0.58895
0.709058 0.938054 0.7
0.708978 0.937793 0.81105
0.708558 0.935911 0.935911
0.834198 0.465677 0.465677
0.835816 0.464048 0.589475
0.836038 0.463822 0.7
0.835816 0.464048 0.810525
0.834198 0.465677 0.934322
0.835816 0.589475 0.464048
0.837692 0.588926 0.588926
0.83795 0.588817 0.7
0.837692 0.588926 0.811073
0.835816 0.589475 0.935951
0.836038 0.7 0.463822
0.83795 0.7 0.588817
0.838218 0.7 0.7
0.83795 0.7 0.811183
0.836038 0.7 0.936179
0.835816 0.810525 0.464048
0.837692 0.811073 0.588926
0.83795 0.811183 0.7
0.837692 0.811073 0.811073
0.835816 0.810525 0.935951
0.834198 0.934322 0.465677
0.835816 0.935951 0.589475
0.836038 0.936179 0.7
0.835816 0.935951 0.810525
0.834198 0.934322 0.934322
1.9658 0.465677 0.465677
1.96418 0.464048 0.589475
1.96396 0.463822 0.7
1.96418 0.464048 0.810525
1.9658 0.465677 0.934322
1.96418 0.589475 0.464048
1.96231 0.588926 0.588926
1.96205 0.588817 0.7
1.96231 0.588926 0.811073
1.96418 0.589475 0.935951
1.96396 0.7 0.463822
1.96205 0.7 0.588817
1.96178 0.7 0.7
1.96205 0.7 0.811183
1.96396 0.7 0.936179
1.96418 0.810525 0.464048
1.96231 0.811073 0.588926
1.96205 0.811183 0.7
1.96231 0.811073 0.811073
1.96418 0.810525 0.935951
1.9658 0.934322 0.465677
1.96418 0.935951 0.589475
1.96396 0.936179 0.7
1.96418 0.935951 0.810525
1.9658 0.934322 0.934322
2.09144 0.464089 0.464089
2.09102 0.462207 0.58895
2.09094 0.461945 0.7
2.09102 0.462207 0.81105
2.09144 0.464089 0.935911
2.09102 0.58895 0.462207
2.09055 0.588329 0.588329
2.09046 0.588204 0.7
2.09055 0.588329 0.811671
2.09102 0.58895 0.937793
2.09094 0.7 0.461945
2.09046 0.7 0.588204
2.09036 0.7 0.7
2.09046 0.7 0.811796
2.09094 0.7 0.938054
2.09102 0.81105 0.462207
2.09055 0.811671 0.588329
2.09046 0.811796 0.7
2.09055 0.811671 0.811671
2.09102 0.81105 0.937793
2.09144 0.935911 0.464089
2.09102 0.937793 0.58895
2.09094 0.938054 0.7
2.09102 0.937793 0.81105
2.09144 0.935911 0.935911
2.20856 0.464089 0.464089
2.20898 0.462207 0.58895
2.20906 0.461945 0.7
2.20898 0.462207 0.81105
2.20856 0.464089 0.935911
2.20898 0.58895 0.462207
2.20945 0.588329 0.588329
2.20955 0.588204 0.7
2.20945 0.588329 0.811671
2.20898 0.58895 0.937793
2.20906 0.7 0.461945
2.20955 0.7 0.588204
2.20964 0.7 0.7
2.20955 0.7 0.811796
2.20906 0.7 0.938054
2.20898 0.81105 0.462207
2.20945 0.811671 0.588329
2.20955 0.811796 0.7
2.20945 0.811671 0.811671
2.20898 0.81105 0.937793
2.20856 0.935911 0.464089
2.20898 0.937793 0.58895
2.20906 0.938054 0.7
2.20898 0.937793 0.81105
2.20856 0.935911 0.935911
2.3342 0.465677 0.465677
2.33581 0.464048 0.589475
2.33604 0.463822 0.7
2.33581 0.464048 0.810525
2.3342 0.465677 0.934322
2.33581 0.589475 0.464048
2.33769 0.588926 0.588926
2.33795 0.588817 0.7
2.33769 0.588926 0.811073
2.33581 0.589475 0.935951
2.33604 0.7 0.463822
2.33795 0.7 0.588817
2.33821 0.7 0.7
2.33795 0.7 0.811183
2.33604 0.7 0.936179
2.33581 0.810525 0.464048
2.33769 0.811073 0.588926
2.33795 0.811183 0.7
2.33769 0.811073 0.811073
2.33581 0.810525 0.935951
2.3342 0.934322 0.465677
2.33581 0.935951 0.589475
2.33604 0.936179 0.7
2.33581 0.935951 0.810525
2.3342 0.934322 0.934322
VERTICES 200 400
1 0
1 1
1 2
1 3
1 4
1 5
1 6
1 7
1 8
1 9
1 10
1 11
1 12
1 13
1 14
1 15
1 16
1 17
1 18
1 19
1 20
1 21
1 22
1 23
1 24
1 25
1 26
1 27
1 28
1 29
1 30
1 31
1 32
1 33
1 34
1 35
1 36
1 37
1 38
1 39
1 40
1 41
1 42
1 43
1 44
1 45
1 46
1 47
1 48
1 49
1 50
1 51
1 52
1 53
1 54
1 55
1 56
1 57
1 58
1 59
1 60
1 61
1 62
1 63
1 64
1 65
1 66
1 67
1 68
1 69
1 70
1 71
1 72
1 73
1 74
1 75
1 76
1 77
1 78
1 79
1 80
1 81
1 82
1 83
1 84
1 85
1 86
1 87
1 88
1 89
1 90
1 91
1 92
1 93
1 94
1 95
1 96
1 97
1 98
1 99
1 100
1 101
1 102
1 103
1 104
1 105
1 106
1 107
1 108
1 109
1 110
1 111
1 112
1 113
1 114
1 115
1 116
1 117
1 118
1 119
1 120
1 121
1 122
1 123
1 124
1 125
1 126
1 127
1 128
1 129
1 130
1 131
1 132
1 133
1 134
1 135
1 136
1 137
1 138
1 139
1 140
1 141
1 142
1 143
1 144
1 145
1 146
1 147
1 148
1 149
1 150
1 151
1 152
1 153
1 154
1 155
1 156
1 157
1 158
1 159
1 160
1 161
1 162
1 163
1 164
1 165
1 166
1 167
1 168
1 169
1 170
1 171
1 172
1 173
1 174
1 175
1 176
1 177
1 178
1 179
1 180
1 181
1 182
1 183
1 184
1 185
1 186
1 187
1 188
1 189
1 190
1 191
1 192
1 193
1 194
1 195
1 196
1 197
1 198
1 199
POINT_DATA 200
VECTORS velocity float
-0.132011 -0.133478 -0.133478
-0.137975 -0.13953 -0.0658754
-0.1392 -0.140797 1.94999e-06
-0.137975 -0.13953 0.0658752
-0.132011 -0.133478 0.133477
-0.137975 -0.0658754 -0.13953
-0.144944 -0.0685834 -0.0685834
-0.146352 -0.0692741 -5.51858e-07
-0.144944 -0.0685834 0.0685832
-0.137975 -0.0658754 0.13953
-0.1392 1.95475e-06 -0.140797
-0.146352 -5.52432e-07 -0.0692741
-0.147812 3.89451e-07 3.87747e-07
-0.146352 -2.22371e-07 0.0692756
-0.1392 1.95242e-06 0.140797
-0.137975 0.0658752 -0.13953
-0.144944 0.0685832 -0.0685834
-0.146352 0.0692756 -2.24366e-07
-0.144944 0.0685828 0.0685828
-0.137975 0.065875 0.13953
-0.132011 0.133477 -0.133478
-0.137975 0.13953 -0.0658754
-0.1392 0.140797 1.94785e-06
-0.137975 0.13953 0.065875
-0.132011 0.133477 0.133477
-0.0480992 -0.139199 -0.139199
-0.0499492 -0.146214 -0.0683787
-0.0504046 -0.147655 3.55816e-07
-0.0499492 -0.146214 0.06838
-0.0480992 -0.139199 0.139197
-0.0499492 -0.0683787 -0.146214
-0.052021 -0.0713833 -0.0713833
-0.0525391 -0.0721564 -1.87123e-06
-0.0520208 -0.0713831 0.0713843
-0.0499492 -0.0683787 0.146214
-0.0504046 3.54077e-07 -0.147655
-0.052539 -1.86995e-06 -0.0721563
-0.0530712 1.2662e-08 1.18564e-08
-0.0525389 -2.1055e-06 0.0721564
-0.0504044 3.5663e-07 0.147656
-0.0499491 0.06838 -0.146214
-0.0520208 0.0713843 -0.0713831
-0.0525389 0.0721564 -2.10651e-06
-0.0520208 0.0713843 0.0713843
-0.0499491 0.06838 0.146214
-0.0480992 0.139197 -0.139199
-0.0499492 0.146214 -0.0683786
-0.0504044 0.147656 3.55212e-07
-0.0499491 0.146214 0.06838
-0.0480991 0.139197 0.139197
0.0481006 -0.139199 -0.139199
0.0499488 -0.146214 -0.0683787
0.0504045 -0.147655 3.55863e-07
0.0499488 -0.146214 0.06838
0.0481005 -0.139199 0.139197
0.0499488 -0.0683787 -0.146214
0.0520196 -0.0713833 -0.0713833
0.0525392 -0.0721564 -1.86587e-06
0.0520195 -0.0713831 0.0713843
0.0499488 -0.0683787 0.146214
0.0504045 3.57221e-07 -0.147655
0.0525392 -1.86515e-06 -0.0721564
0.0530731 1.65876e-08 1.49199e-08
0.0525392 -2.10462e-06 0.0721563
0.0504043 3.58079e-07 0.147656
0.0499488 0.06838 -0.146214
0.0520195 0.0713843 -0.0713831
0.0525392 0.0721563 -2.10518e-06
0.0520196 0.0713843 0.0713844
0.0499487 0.06838 0.146214
0.0481005 0.139197 -0.139199
0.0499487 0.146214 -0.0683787
0.0504043 0.147656 3.56618e-07
0.0499487 0.146214 0.06838
0.0481005 0.139197 0.139197
0.13201 -0.133478 -0.133478
0.137975 -0.13953 -0.0658754
0.1392 -0.140797 1.94906e-06
0.137975 -0.13953 0.065875
0.13201 -0.133478 0.133477
0.137975 -0.0658754 -0.13953
0.144944 -0.0685834 -0.0685834
0.146352 -0.0692742 -5.49703e-07
0.144944 -0.0685834 0.0685832
0.137975 -0.0658756 0.13953
0.1392 1.95429e-06 -0.140797
0.146352 -5.49179e-07 -0.0692742
0.147813 3.9289e-07 3.91961e-07
0.146352 -2.2172e-07 0.0692756
0.1392 1.95347e-06 0.140797
0.137975 0.065875 -0.13953
0.144944 0.0685832 -0.0685834
0.146352 0.0692756 -2.23541e-07
0.144944 0.0685828 0.0685828
0.137975 0.065875 0.13953
0.13201 0.133477 -0.133478
0.137975 0.13953 -0.0658756
0.1392 0.140797 1.94733e-06
0.137975 0.13953 0.065875
0.13201 0.133477 0.133477
-0.13201 -0.133478 -0.133478
-0.137974 -0.13953 -0.0658754
-0.139201 -0.140797 1.95064e-06
-0.137974 -0.13953 0.0658752
-0.13201 -0.133478 0.133477
-0.137974 -0.0658754 -0.13953
-0.144947 -0.0685834 -0.0685834
-0.146351 -0.0692741 -5.51564e-07
-0.144947 -0.0685834 0.0685832
-0.137974 -0.0658754 0.13953
-0.139201 1.9548e-06 -0.140797
-0.146351 -5.51624e-07 -0.0692741
-0.147816 3.838e-07 3.78338e-07
-0.146351 -5.49828e-07 0.0692756
-0.139201 1.95123e-06 0.140797
-0.137974 0.0658752 -0.13953
-0.144947 0.0685832 -0.0685834
-0.146351 0.0692756 -2.24811e-07
-0.144947 0.0685832 0.0685828
-0.137974 0.0658752 0.13953
-0.13201 0.133477 -0.133478
-0.137974 0.13953 -0.0658754
-0.139201 0.140797 1.95539e-06
-0.137974 0.13953 0.0658752
-0.13201 0.133477 0.133477
-0.0481043 -0.139199 -0.139199
-0.0499547 -0.146214 -0.0683786
-0.0504085 -0.147655 3.58528e-07
-0.0499547 -0.146214 0.0683801
-0.0481043 -0.139199 0.139197
-0.0499547 -0.0683786 -0.146214
-0.0520166 -0.0713831 -0.0713831
-0.0525413 -0.0721564 -2.1076e-06
-0.0520166 -0.0713831 0.0713844
-0.0499547 -0.0683786 0.146214
-0.0504085 3.54328e-07 -0.147655
-0.0525412 -2.10785e-06 -0.0721563
-0.05307 -1.85089e-07 -1.95804e-07
-0.0525413 -2.08727e-06 0.0721566
-0.0504085 3.58027e-07 0.147656
-0.0499547 0.0683801 -0.146214
-0.0520166 0.0713843 -0.0713828
-0.0525413 0.0721565 -2.32818e-06
-0.0520166 0.0713843 0.0713843
-0.0499547 0.0683801 0.146214
-0.0481042 0.139197 -0.139199
-0.0499547 0.146214 -0.0683786
-0.0504085 0.147656 3.55557e-07
-0.0499547 0.146214 0.0683799
-0.0481042 0.139197 0.139197
0.0481079 -0.139199 -0.139199
0.049945 -0.146214 -0.068379
0.0503997 -0.147655 4.24299e-07
0.049945 -0.146214 0.0683804
0.0481079 -0.139199 0.139198
0.049945 -0.068379 -0.146214
0.0520141 -0.0713831 -0.0713831
0.0525469 -0.0721565 -1.81554e-06
0.0520141 -0.0713831 0.071384
0.049945 -0.068379 0.146214
0.0503997 4.24677e-07 -0.147655
0.0525469 -1.81575e-06 -0.0721565
0.0530711 1.71516e-07 1.69234e-07
0.052547 -1.81273e-06 0.0721562
0.0503997 4.2383e-07 0.147656
0.049945 0.0683804 -0.146214
0.0520141 0.071384 -0.0713831
0.052547 0.0721562 -1.81703e-06
0.0520142 0.071384 0.071384
0.049945 0.0683804 0.146214
0.0481079 0.139198 -0.139199
0.049945 0.146214 -0.068379
0.0503997 0.147656 4.23576e-07
0.049945 0.146214 0.0683804
0.0481078 0.139198 0.139198
0.132011 -0.133478 -0.133478
0.137981 -0.139531 -0.0658754
0.139208 -0.140797 1.94902e-06
0.137981 -0.139531 0.0658752
0.132011 -0.133478 0.133477
0.137981 -0.0658754 -0.139531
0.144947 -0.0685837 -0.0685837
0.146354 -0.0692743 -5.496e-07
0.144947 -0.0685837 0.0685833
0.137981 -0.0658754 0.13953
0.139208 1.95553e-06 -0.140797
0.146354 -5.48901e-07 -0.0692743
0.147808 3.93439e-07 3.92805e-07
0.146354 -2.19498e-07 0.0692757
0.139208 1.95523e-06 0.140797
0.137981 0.0658752 -0.139531
0.144947 0.0685833 -0.0685837
0.146354 0.0692757 -2.22405e-07
0.144947 0.0685829 0.0685829
0.137981 0.065875 0.13953
0.132011 0.133477 -0.133478
0.137981 0.13953 -0.0658754
0.139208 0.140797 1.9468e-06
0.137981 0.13953 0.065875
0.132011 0.133477 0.133477
VECTORS force float
-0.0990422 -0.110966 -0.110966
-0.101586 -0.11377 -0.154558
-0.10373 -0.116188 4.32451e-06
-0.101586 -0.11377 0.154552
-0.0990422 -0.110966 0.110969
-0.101586 -0.154559 -0.11377
-0.104774 -0.156005 -0.156005
-0.107187 -0.157193 -2.88209e-06
-0.104774 -0.156005 0.156004
-0.101586 -0.154558 0.11377
-0.10373 4.40331e-06 -0.116188
-0.107187 -2.95869e-06 -0.157193
-0.109706 2.82885e-06 2.82924e-06
-0.107187 -4.08581e-06 0.157195
-0.10373 4.40792e-06 0.116192
-0.101586 0.154552 -0.11377
-0.104774 0.156004 -0.156005
-0.107187 0.157195 -4.02947e-06
-0.104774 0.156005 0.156005
-0.101586 0.154551 0.113769
-0.0990423 0.110969 -0.110967
-0.101586 0.11377 -0.154558
-0.10373 0.116192 4.40448e-06
-0.101586 0.113769 0.154551
-0.0990424 0.11097 0.11097
-0.0710812 -0.11226 -0.11226
-0.0713503 -0.115504 -0.15513
-0.0718514 -0.118153 6.29071e-06
-0.0713502 -0.115504 0.155123
-0.0710813 -0.11226 0.11226
-0.0713504 -0.15513 -0.115504
-0.0716298 -0.156426 -0.156426
-0.0721907 -0.157666 -5.98292e-06
-0.0716296 -0.156426 0.156434
-0.071351 -0.15513 0.115503
-0.0718514 6.24722e-06 -0.118153
-0.0721907 -5.979e-06 -0.157665
-0.0727701 -2.22106e-06 -2.22529e-06
-0.0721904 -6.00497e-06 0.157667
-0.0718513 6.17184e-06 0.118151
-0.0713498 0.155123 -0.115504
-0.0716295 0.156434 -0.156426
-0.0721904 0.157668 -6.00003e-06
-0.0716293 0.156434 0.156434
-0.0713499 0.155123 0.115503
-0.0710812 0.11226 -0.11226
-0.0713503 0.115503 -0.15513
-0.0718512 0.118151 6.18141e-06
-0.0713498 0.115503 0.155123
-0.0710811 0.11226 0.11226
0.0710831 -0.11226 -0.11226
0.0713493 -0.115504 -0.15513
0.0718507 -0.118153 6.28598e-06
0.0713492 -0.115504 0.155123
0.0710832 -0.11226 0.11226
0.0713493 -0.15513 -0.115504
0.0716283 -0.156426 -0.156426
0.0721899 -0.157666 -5.97165e-06
0.0716281 -0.156426 0.156434
0.0713499 -0.15513 0.115503
0.0718507 6.27757e-06 -0.118153
0.0721899 -5.96612e-06 -0.157666
0.0727723 -2.22196e-06 -2.20977e-06
0.0721894 -5.98868e-06 0.157668
0.0718506 6.21105e-06 0.118151
0.0713491 0.155123 -0.115504
0.0716281 0.156434 -0.156426
0.0721894 0.157668 -5.98522e-06
0.071628 0.156434 0.156434
0.0713492 0.155123 0.115503
0.0710832 0.11226 -0.11226
0.0713492 0.115503 -0.15513
0.0718506 0.118151 6.19139e-06
0.0713491 0.115503 0.155123
0.0710829 0.11226 0.11226
0.0990415 -0.110966 -0.110966
0.101586 -0.11377 -0.154558
0.103732 -0.116188 4.33141e-06
0.101586 -0.11377 0.154551
0.0990415 -0.110967 0.11097
0.101586 -0.154558 -0.11377
0.104773 -0.156005 -0.156005
0.107187 -0.157193 -2.87853e-06
0.104773 -0.156005 0.156004
0.101586 -0.154558 0.11377
0.103732 4.38071e-06 -0.116188
0.107187 -2.94021e-06 -0.157193
0.109713 2.84041e-06 2.84119e-06
0.107188 -4.06621e-06 0.157195
0.103732 4.43039e-06 0.116192
0.101586 0.154551 -0.11377
0.104773 0.156004 -0.156005
0.107188 0.157195 -4.0248e-06
0.104773 0.156005 0.156005
0.101586 0.154551 0.113769
0.0990414 0.11097 -0.110967
0.101586 0.11377 -0.154558
0.103732 0.116192 4.412e-06
0.101586 0.113769 0.154551
0.0990417 0.11097 0.11097
-0.0990389 -0.110966 -0.110967
-0.101582 -0.11377 -0.154558
-0.10373 -0.116188 4.2795e-06
-0.101582 -0.11377 0.154552
-0.0990389 -0.110967 0.110969
-0.101582 -0.154558 -0.11377
-0.104773 -0.156005 -0.156005
-0.107178 -0.157193 -3.04336e-06
-0.104772 -0.156005 0.156004
-0.101582 -0.154558 0.113769
-0.10373 4.38829e-06 -0.116188
-0.107178 -3.01693e-06 -0.157193
-0.109713 2.89477e-06 2.78978e-06
-0.107178 -3.00893e-06 0.157195
-0.10373 4.3926e-06 0.116192
-0.101582 0.154552 -0.11377
-0.104773 0.156004 -0.156005
-0.107178 0.157194 -4.01731e-06
-0.104773 0.156004 0.156005
-0.101582 0.154552 0.113769
-0.0990388 0.110969 -0.110967
-0.101582 0.113769 -0.154558
-0.10373 0.116192 4.34458e-06
-0.101582 0.113769 0.154552
-0.0990388 0.110969 0.110969
-0.0710823 -0.11226 -0.11226
-0.0713695 -0.115504 -0.15513
-0.0718803 -0.118152 6.18987e-06
-0.0713694 -0.115504 0.155124
-0.0710824 -0.11226 0.112261
-0.0713695 -0.15513 -0.115504
-0.0716556 -0.156426 -0.156426
-0.0721848 -0.157667 -5.94373e-06
-0.0716555 -0.156425 0.156433
-0.0713696 -0.15513 0.115503
-0.0718803 6.29698e-06 -0.118152
-0.0721842 -5.94187e-06 -0.157667
-0.072765 -1.2623e-06 -1.0723e-06
-0.0721849 -6.01887e-06 0.157667
-0.0718802 6.20125e-06 0.118151
-0.0713694 0.155124 -0.115504
-0.0716555 0.156433 -0.156426
-0.0721844 0.157667 -4.92732e-06
-0.0716554 0.156432 0.156433
-0.0713694 0.155124 0.115503
-0.0710824 0.112261 -0.11226
-0.0713696 0.115503 -0.15513
-0.0718802 0.118151 6.19698e-06
-0.0713694 0.115503 0.155124
-0.0710825 0.11226 0.112261
0.0710804 -0.11226 -0.11226
0.0713671 -0.115504 -0.155131
0.0718638 -0.118152 7.27836e-06
0.071367 -0.115504 0.155123
0.0710805 -0.11226 0.112261
0.0713671 -0.155131 -0.115504
0.0716483 -0.156427 -0.156427
0.072194 -0.157667 -4.95414e-06
0.0716481 -0.156427 0.156434
0.0713671 -0.155131 0.115503
0.0718637 7.27451e-06 -0.118152
0.072194 -4.99274e-06 -0.157667
0.0727467 -1.23571e-06 -1.1309e-06
0.0721941 -5.0034e-06 0.157667
0.0718637 7.23882e-06 0.118151
0.0713669 0.155123 -0.115504
0.0716481 0.156434 -0.156427
0.0721941 0.157668 -4.94625e-06
0.071648 0.156434 0.156434
0.071367 0.155123 0.115503
0.0710805 0.112261 -0.11226
0.0713671 0.115503 -0.155131
0.0718637 0.118151 7.27918e-06
0.071367 0.115503 0.155123
0.0710806 0.112261 0.112261
0.0990468 -0.110966 -0.110966
0.101585 -0.11377 -0.154558
0.103731 -0.116188 4.42537e-06
0.101585 -0.11377 0.154551
0.0990468 -0.110966 0.110969
0.101585 -0.154558 -0.11377
0.104764 -0.156006 -0.156006
0.107203 -0.157194 -2.93779e-06
0.104764 -0.156006 0.156005
0.101585 -0.154558 0.11377
0.103731 4.42325e-06 -0.116188
0.107203 -3.0578e-06 -0.157194
0.109688 2.80567e-06 2.8327e-06
0.107203 -4.06394e-06 0.157196
0.103731 4.45963e-06 0.116192
0.101585 0.154551 -0.11377
0.104764 0.156005 -0.156006
0.107203 0.157196 -4.08303e-06
0.104764 0.156006 0.156006
0.101585 0.154551 0.113769
0.0990469 0.110969 -0.110966
0.101585 0.11377 -0.154558
0.103731 0.116192 4.33687e-06
0.101585 0.113769 0.154551
0.0990468 0.110969 0.110969
SCALARS mass float 1
LOOKUP_TABLE default
1
1
1
1
1
1
1
1
1
1
1
1
1
1
1
1
1
1
1
1
1
1
1
1
1
1
1
1
1
1
1
1
1
1
1
1
1
1
1
1
1
1
1
1
1
1
1
1
1
1
1
1
1
1
1
1
1
1
1
1
1
1
1
1
1
1
1
1
1
1
1
1
1
1
1
1
1
1
1
1
1
1
1
1
1
1
1
1
1
1
1
1
1
1
1
1
1
1
1
1
1
1
1
1
1
1
1
1
1
1
1
1
1
1
1
1
1
1
1
1
1
1
1
1
1
1
1
1
1
1
1
1
1
1
1
1
1
1
1
1
1
1
1
1
1
1
1
1
1
1
1
1
1
1
1
1
1
1
1
1
1
1
1
1
1
1
1
1
1
1
1
1
1
1
1
1
1
1
1
1
1
1
1
1
1
1
1
1
1
1
1
1
1
1
1
1
1
1
1
1
