# vtk DataFile Version 3.0
Molecular Dynamics Particle Data
ASCII
DATASET POLYDATA
POINTS 200 float
0.452184 0.451847 0.451847
0.44996 0.449603 0.582236
0.449606 0.449239 0.7
0.44996 0.449603 0.817764
0.452184 0.451847 0.948153
0.44996 0.582236 0.449603
0.447375 0.581413 0.581413
0.446966 0.581231 0.7
0.447375 0.581413 0.818586
0.44996 0.582236 0.950397
0.449606 0.7 0.449239
0.446966 0.7 0.581231
0.446542 0.7 0.7
0.446966 0.7 0.81877
0.449606 0.7 0.950761
0.44996 0.817764 0.449603
0.447375 0.818586 0.581413
0.446966 0.81877 0.7
0.447375 0.818586 0.818586
0.44996 0.817764 0.950397
0.452184 0.948153 0.451847
0.44996 0.950397 0.582236
0.449606 0.950761 0.7
0.44996 0.950397 0.817764
0.452184 0.948153 0.948153
0.586359 0.449684 0.449684
0.585753 0.447089 0.581461
0.585626 0.446672 0.7
0.585753 0.447089 0.818539
0.586359 0.449684 0.950316
0.585753 0.581461 0.447089
0.58507 0.580537 0.580537
0.584925 0.580331 0.7
0.58507 0.580537 0.819463
0.585753 0.581461 0.952911
0.585626 0.7 0.446672
0.584925 0.7 0.580331
0.584775 0.7 0.7
0.584925 0.7 0.819669
0.585626 0.7 0.953328
0.585753 0.818539 0.447089
0.58507 0.819463 0.580537
0.584925 0.819669 0.7
0.58507 0.819463 0.819463
0.585753 0.818539 0.952911
0.586359 0.950316 0.449684
0.585753 0.952911 0.581461
0.585626 0.953328 0.7
0.585753 0.952911 0.818539
0.586359 0.950316 0.950316
0.713642 0.449684 0.449684
0.714247 0.447089 0.581461
0.714374 0.446672 0.7
0.714247 0.447089 0.818539
0.713642 0.449684 0.950316
0.714247 0.581461 0.447089
0.714929 0.580537 0.580537
0.715075 0.580331 0.7
0.714929 0.580537 0.819463
0.714247 0.581461 0.952911
0.714374 0.7 0.446672
0.715075 0.7 0.580331
0.715226 0.7 0.7
0.715075 0.7 0.819669
0.714374 0.7 0.953328
0.714247 0.818539 0.447089
0.714929 0.819463 0.580537
0.715075 0.819669 0.7
0.714929 0.819463 0.819463
0.714247 0.818539 0.952911
0.713642 0.950316 0.449684
0.714247 0.952911 0.581461
0.714374 0.953328 0.7
0.714247 0.952911 0.818539
0.713642 0.950316 0.950316
0.847817 0.451847 0.451847
0.85004 0.449603 0.582236
0.850394 0.449239 0.7
0.85004 0.449603 0.817764
0.847817 0.451847 0.948153
0.85004 0.582236 0.449603
0.852625 0.581413 0.581413
0.853034 0.581231 0.7
0.852625 0.581413 0.818586
0.85004 0.582236 0.950397
0.850394 0.7 0.449239
0.853034 0.7 0.581231
0.853458 0.7 0.7
0.853034 0.7 0.81877
0.850394 0.7 0.950761
0.85004 0.817764 0.449603
0.852625 0.818586 0.581413
0.853034 0.81877 0.7
0.852625 0.818586 0.818586
0.85004 0.817764 0.950397
0.847817 0.948153 0.451847
0.85004 0.950397 0.582236
0.850394 0.950761 0.7
0.85004 0.950397 0.817764
0.847817 0.948153 0.948153
1.95218 0.451847 0.451847
1.94996 0.449603 0.582236
1.9496 0.449239 0.7
1.94996 0.449603 0.817764
1.95218 0.451847 0.948153
1.94996 0.582236 0.449603
1.94737 0.581413 0.581413
1.94697 0.581231 0.7
1.94737 0.581413 0.818586
1.94996 0.582236 0.950397
1.9496 0.7 0.449239
1.94697 0.7 0.581231
1.94654 0.7 0.7
1.94697 0.7 0.81877
1.9496 0.7 0.950761
1.94996 0.817764 0.449603
1.94737 0.818586 0.581413
1.94697 0.81877 0.7
1.94737 0.818586 0.818586
1.94996 0.817764 0.950397
1.95218 0.948153 0.451847
1.94996 0.950397 0.582236
1.9496 0.950761 0.7
1.94996 0.950397 0.817764
1.95218 0.948153 0.948153
2.08636 0.449684 0.449684
2.08575 0.447089 0.581461
2.08563 0.446672 0.7
2.08575 0.447089 0.818539
2.08636 0.449684 0.950316
2.08575 0.581461 0.447089
2.08507 0.580537 0.580537
2.08492 0.580331 0.7
2.08507 0.580537 0.819463
2.08575 0.581461 0.952911
2.08563 0.7 0.446672
2.08492 0.7 0.580331
2.08477 0.7 0.7
2.08492 0.7 0.819669
2.08563 0.7 0.953328
2.08575 0.818539 0.447089
2.08507 0.819463 0.580537
2.08492 0.819669 0.7
2.08507 0.819463 0.819463
2.08575 0.818539 0.952911
2.08636 0.950316 0.449684
2.08575 0.952911 0.581461
2.08563 0.953328 0.7
2.08575 0.952911 0.818539
2.08636 0.950316 0.950316
2.21364 0.449684 0.449684
2.21424 0.447089 0.581461
2.21437 0.446672 0.7
2.21424 0.447089 0.81854
2.21364 0.449684 0.950316
2.21424 0.581461 0.447089
2.21493 0.580537 0.580537
2.21508 0.580331 0.7
2.21493 0.580537 0.819463
2.21424 0.581461 0.952911
2.21437 0.7 0.446672
2.21508 0.7 0.580331
2.21523 0.7 0.7
2.21508 0.7 0.819669
2.21437 0.7 0.953328
2.21424 0.81854 0.447089
2.21493 0.819463 0.580537
2.21508 0.819669 0.7
2.21493 0.819463 0.819463
2.21424 0.81854 0.952911
2.21364 0.950316 0.449684
2.21424 0.952911 0.581461
2.21437 0.953328 0.7
2.21424 0.952911 0.81854
2.21364 0.950316 0.950316
2.34782 0.451847 0.451847
2.35004 0.449602 0.582236
2.35039 0.449239 0.7
2.35004 0.449602 0.817764
2.34782 0.451847 0.948153
2.35004 0.582236 0.449602
2.35263 0.581413 0.581413
2.35304 0.581231 0.7
2.35263 0.581413 0.818586
2.35004 0.582236 0.950397
2.35039 0.7 0.449239
2.35304 0.7 0.581231
2.35345 0.7 0.7
2.35304 0.7 0.81877
2.35039 0.7 0.950761
2.35004 0.817764 0.449602
2.35263 0.818586 0.581413
2.35304 0.81877 0.7
2.35263 0.818586 0.818586
2.35004 0.817764 0.950397
2.34782 0.948153 0.451847
2.35004 0.950397 0.582236
2.35039 0.950761 0.7
2.35004 0.950397 0.817764
2.34782 0.948153 0.948153
VERTICES 200 400
1 0
1 1
1 2
1 3
1 4
1 5
1 6
1 7
1 8
1 9
1 10
1 11
1 12
1 13
1 14
1 15
1 16
1 17
1 18
1 19
1 20
1 21
1 22
1 23
1 24
1 25
1 26
1 27
1 28
1 29
1 30
1 31
1 32
1 33
1 34
1 35
1 36
1 37
1 38
1 39
1 40
1 41
1 42
1 43
1 44
1 45
1 46
1 47
1 48
1 49
1 50
1 51
1 52
1 53
1 54
1 55
1 56
1 57
1 58
1 59
1 60
1 61
1 62
1 63
1 64
1 65
1 66
1 67
1 68
1 69
1 70
1 71
1 72
1 73
1 74
1 75
1 76
1 77
1 78
1 79
1 80
1 81
1 82
1 83
1 84
1 85
1 86
1 87
1 88
1 89
1 90
1 91
1 92
1 93
1 94
1 95
1 96
1 97
1 98
1 99
1 100
1 101
1 102
1 103
1 104
1 105
1 106
1 107
1 108
1 109
1 110
1 111
1 112
1 113
1 114
1 115
1 116
1 117
1 118
1 119
1 120
1 121
1 122
1 123
1 124
1 125
1 126
1 127
1 128
1 129
1 130
1 131
1 132
1 133
1 134
1 135
1 136
1 137
1 138
1 139
1 140
1 141
1 142
1 143
1 144
1 145
1 146
1 147
1 148
1 149
1 150
1 151
1 152
1 153
1 154
1 155
1 156
1 157
1 158
1 159
1 160
1 161
1 162
1 163
1 164
1 165
1 166
1 167
1 168
1 169
1 170
1 171
1 172
1 173
1 174
1 175
1 176
1 177
1 178
1 179
1 180
1 181
1 182
1 183
1 184
1 185
1 186
1 187
1 188
1 189
1 190
1 191
1 192
1 193
1 194
1 195
1 196
1 197
1 198
1 199
POINT_DATA 200
VECTORS velocity float
-0.13969 -0.142503 -0.142503
-0.145813 -0.148719 -0.0777934
-0.14719 -0.150164 2.17484e-06
-0.145813 -0.148719 0.0777928
-0.13969 -0.142503 0.142502
-0.145813 -0.0777934 -0.148719
-0.152987 -0.0805353 -0.0805353
-0.154567 -0.0812889 -8.37345e-07
-0.152987 -0.0805352 0.080535
-0.145813 -0.0777934 0.148718
-0.14719 2.18031e-06 -0.150164
-0.154567 -8.38769e-07 -0.0812889
-0.156207 7.20212e-07 7.18557e-07
-0.154567 -5.8639e-07 0.0812904
-0.14719 2.17671e-06 0.150164
-0.145813 0.0777928 -0.148719
-0.152987 0.080535 -0.0805353
-0.154567 0.0812904 -5.88103e-07
-0.152987 0.0805347 0.0805347
-0.145812 0.0777926 0.148718
-0.13969 0.142502 -0.142503
-0.145813 0.148718 -0.0777934
-0.14719 0.150164 2.17266e-06
-0.145812 0.148718 0.0777926
-0.13969 0.142502 0.142502
-0.0528852 -0.148243 -0.148243
-0.0547406 -0.155446 -0.0802623
-0.0552225 -0.157082 8.29011e-07
-0.0547406 -0.155447 0.080263
-0.0528852 -0.148243 0.148241
-0.0547407 -0.0802623 -0.155446
-0.0568196 -0.083283 -0.083283
-0.0573681 -0.084121 -2.31924e-06
-0.0568195 -0.0832828 0.0832846
-0.0547407 -0.0802622 0.155446
-0.0552225 8.25813e-07 -0.157082
-0.0573681 -2.31834e-06 -0.0841209
-0.0579321 -1.13175e-07 -1.1398e-07
-0.057368 -2.5547e-06 0.0841211
-0.0552224 8.28995e-07 0.157082
-0.0547406 0.080263 -0.155447
-0.0568194 0.0832847 -0.0832828
-0.057368 0.0841211 -2.55501e-06
-0.0568194 0.0832847 0.0832847
-0.0547405 0.080263 0.155446
-0.0528852 0.148241 -0.148243
-0.0547406 0.155446 -0.0802622
-0.0552224 0.157082 8.27145e-07
-0.0547405 0.155446 0.080263
-0.0528851 0.148241 0.148241
0.0528866 -0.148243 -0.148243
0.0547401 -0.155446 -0.0802623
0.0552224 -0.157082 8.28769e-07
0.0547401 -0.155447 0.0802631
0.0528866 -0.148243 0.148241
0.0547401 -0.0802623 -0.155446
0.0568181 -0.0832831 -0.0832831
0.0573682 -0.084121 -2.31454e-06
0.0568181 -0.0832828 0.0832847
0.0547402 -0.0802623 0.155446
0.0552224 8.30726e-07 -0.157082
0.0573682 -2.31363e-06 -0.084121
0.0579342 -1.45697e-07 -1.48082e-07
0.0573681 -2.55383e-06 0.0841211
0.0552222 8.3234e-07 0.157082
0.0547401 0.0802631 -0.155447
0.0568181 0.0832847 -0.0832828
0.0573681 0.0841211 -2.53897e-06
0.0568181 0.0832847 0.0832847
0.0547401 0.0802631 0.155446
0.0528866 0.148241 -0.148243
0.0547401 0.155446 -0.0802623
0.0552222 0.157082 8.29699e-07
0.0547401 0.155446 0.0802631
0.0528865 0.148241 0.148241
0.139689 -0.142503 -0.142503
0.145813 -0.148718 -0.0777934
0.147191 -0.150164 2.17383e-06
0.145813 -0.148719 0.0777926
0.139689 -0.142502 0.142502
0.145813 -0.0777934 -0.148718
0.152987 -0.0805353 -0.0805353
0.154567 -0.081289 -8.34434e-07
0.152987 -0.0805353 0.080535
0.145813 -0.0777936 0.148718
0.147191 2.17939e-06 -0.150164
0.154567 -8.34733e-07 -0.081289
0.156208 7.69087e-07 7.68776e-07
0.154567 -5.84849e-07 0.0812904
0.147191 2.15211e-06 0.150164
0.145813 0.0777926 -0.148719
0.152987 0.080535 -0.0805353
0.154567 0.0812904 -5.86458e-07
0.152987 0.0805347 0.0805347
0.145813 0.0777926 0.148718
0.139689 0.142502 -0.142502
0.145813 0.148718 -0.0777936
0.147191 0.150164 2.14526e-06
0.145813 0.148718 0.0777926
0.139689 0.142502 0.142502
-0.139689 -0.142503 -0.142503
-0.145811 -0.148718 -0.0777935
-0.147191 -0.150164 2.17614e-06
-0.145811 -0.148719 0.0777928
-0.139689 -0.142503 0.142502
-0.145811 -0.0777935 -0.148718
-0.15299 -0.0805353 -0.0805353
-0.154566 -0.0812889 -8.36543e-07
-0.15299 -0.0805352 0.080535
-0.145811 -0.0777934 0.148718
-0.147191 2.17985e-06 -0.150164
-0.154565 -8.36976e-07 -0.0812889
-0.156211 7.18551e-07 7.13197e-07
-0.154565 -8.34785e-07 0.0812904
-0.147191 2.17735e-06 0.150164
-0.145811 0.0777928 -0.148719
-0.15299 0.080535 -0.0805352
-0.154565 0.0812904 -5.87029e-07
-0.15299 0.080535 0.0805347
-0.145811 0.0777928 0.148718
-0.139689 0.142502 -0.142503
-0.145811 0.148718 -0.0777934
-0.147191 0.150164 2.18058e-06
-0.145811 0.148718 0.0777927
-0.139689 0.142502 0.142502
-0.0528895 -0.148243 -0.148243
-0.0547471 -0.155446 -0.0802622
-0.0552277 -0.157082 8.30633e-07
-0.054747 -0.155447 0.0802632
-0.0528895 -0.148243 0.148241
-0.054747 -0.0802622 -0.155446
-0.0568168 -0.0832827 -0.0832827
-0.057369 -0.084121 -2.55288e-06
-0.0568169 -0.0832827 0.0832846
-0.0547471 -0.0802622 0.155446
-0.0552277 8.28719e-07 -0.157082
-0.0573689 -2.55294e-06 -0.084121
-0.0579298 -2.3818e-07 -2.41877e-07
-0.0573691 -2.53333e-06 0.0841213
-0.0552277 8.29954e-07 0.157082
-0.054747 0.0802632 -0.155447
-0.0568168 0.0832846 -0.0832825
-0.057369 0.0841212 -2.70105e-06
-0.0568169 0.0832845 0.0832845
-0.054747 0.0802632 0.155446
-0.0528895 0.148241 -0.148243
-0.0547471 0.155446 -0.0802622
-0.0552277 0.157082 8.27541e-07
-0.054747 0.155446 0.080263
-0.0528894 0.148241 0.148241
0.0528928 -0.148243 -0.148243
0.0547374 -0.155446 -0.0802626
0.0552179 -0.157082 9.75565e-07
0.0547374 -0.155446 0.0802634
0.0528927 -0.148243 0.148242
0.0547374 -0.0802627 -0.155446
0.0568138 -0.0832829 -0.0832829
0.0573756 -0.0841212 -2.18868e-06
0.0568138 -0.0832829 0.0832843
0.0547374 -0.0802626 0.155446
0.055218 9.76167e-07 -0.157082
0.0573756 -2.18904e-06 -0.0841211
0.0579296 4.67911e-08 4.45111e-08
0.0573757 -2.18655e-06 0.084121
0.0552179 9.75246e-07 0.157082
0.0547374 0.0802634 -0.155446
0.0568138 0.0832843 -0.083283
0.0573757 0.084121 -2.18997e-06
0.0568138 0.0832843 0.0832843
0.0547374 0.0802634 0.155446
0.0528927 0.148242 -0.148243
0.0547374 0.155446 -0.0802626
0.0552179 0.157082 9.7501e-07
0.0547374 0.155446 0.0802634
0.0528927 0.148242 0.148242
0.13969 -0.142502 -0.142503
0.145818 -0.148719 -0.0777935
0.147198 -0.150164 2.17483e-06
0.145818 -0.148719 0.0777927
0.13969 -0.142502 0.142502
0.145818 -0.0777935 -0.148719
0.152989 -0.0805356 -0.0805356
0.154571 -0.0812892 -8.32581e-07
0.152989 -0.0805356 0.0805352
0.145818 -0.0777934 0.148718
0.147198 2.18118e-06 -0.150164
0.154571 -8.3196e-07 -0.0812892
0.1562 7.87371e-07 7.86684e-07
0.154571 -5.79014e-07 0.0812905
0.147198 2.18114e-06 0.150164
0.145818 0.0777927 -0.148719
0.152989 0.0805352 -0.0805356
0.154571 0.0812905 -5.82632e-07
0.152989 0.0805348 0.0805348
0.145818 0.0777926 0.148718
0.13969 0.142502 -0.142502
0.145818 0.148718 -0.0777934
0.147198 0.150164 2.17257e-06
0.145818 0.148718 0.0777926
0.13969 0.142502 0.142502
VECTORS force float
-0.0582988 -0.0727847 -0.0727847
-0.0591802 -0.07349 -0.0875812
-0.0601638 -0.0746934 1.21416e-06
-0.0591803 -0.0734901 0.0875782
-0.0582988 -0.0727847 0.0727865
-0.0591802 -0.0875811 -0.0734901
-0.0604012 -0.0872553 -0.0872553
-0.061514 -0.0874543 -2.23145e-06
-0.0604012 -0.0872552 0.0872554
-0.05918 -0.0875811 0.0734897
-0.0601639 1.2195e-06 -0.0746934
-0.061514 -2.2671e-06 -0.0874543
-0.0626704 2.6419e-06 2.72815e-06
-0.0615142 -2.88464e-06 0.0874536
-0.0601639 1.16797e-06 0.0746955
-0.0591803 0.0875783 -0.0734901
-0.0604013 0.0872554 -0.0872552
-0.0615142 0.0874537 -2.87317e-06
-0.0604013 0.0872561 0.0872561
-0.0591803 0.0875781 0.0734896
-0.0582989 0.0727865 -0.0727847
-0.0591802 0.0734896 -0.0875811
-0.0601639 0.0746955 1.18772e-06
-0.0591803 0.0734896 0.087578
-0.058299 0.0727867 0.0727867
-0.029626 -0.0721324 -0.0721324
-0.0296441 -0.0729523 -0.0867621
-0.0297479 -0.0742471 3.43278e-06
-0.0296441 -0.0729523 0.086757
-0.0296261 -0.0721323 0.0721341
-0.0296442 -0.086762 -0.0729523
-0.0296831 -0.0862709 -0.0862709
-0.0298151 -0.0864741 -3.26559e-06
-0.029683 -0.0862709 0.0862759
-0.0296445 -0.086762 0.0729511
-0.0297479 3.43749e-06 -0.0742471
-0.0298151 -3.26449e-06 -0.086474
-0.0299581 -6.45897e-07 -6.46194e-07
-0.029815 -3.24836e-06 0.0864749
-0.0297478 3.44188e-06 0.074246
-0.0296439 0.086757 -0.0729524
-0.029683 0.0862759 -0.0862709
-0.0298149 0.0864749 -3.25634e-06
-0.0296828 0.0862759 0.0862759
-0.029644 0.086757 0.0729512
-0.029626 0.0721341 -0.0721323
-0.0296441 0.0729511 -0.086762
-0.0297478 0.0742461 3.43664e-06
-0.0296439 0.0729511 0.086757
-0.029626 0.072134 0.072134
0.0296263 -0.0721324 -0.0721324
0.0296432 -0.0729523 -0.0867621
0.0297477 -0.0742471 3.49987e-06
0.0296432 -0.0729523 0.086757
0.0296263 -0.0721324 0.0721341
0.0296432 -0.086762 -0.0729523
0.029682 -0.0862709 -0.086271
0.0298149 -0.0864742 -3.26652e-06
0.0296819 -0.0862709 0.086276
0.0296436 -0.0867619 0.0729511
0.0297477 3.45194e-06 -0.0742471
0.0298149 -3.26787e-06 -0.0864741
0.0299601 -1.13964e-06 -1.23274e-06
0.0298147 -3.28373e-06 0.0864755
0.0297476 3.4527e-06 0.0742459
0.0296432 0.0867569 -0.0729523
0.0296819 0.086276 -0.0862709
0.0298147 0.0864756 -2.77166e-06
0.0296818 0.086276 0.0862754
0.0296433 0.086757 0.0729513
0.0296263 0.0721341 -0.0721324
0.0296432 0.0729511 -0.0867619
0.0297476 0.0742458 3.44624e-06
0.0296432 0.0729511 0.086757
0.0296261 0.072134 0.072134
0.0582995 -0.0727846 -0.0727846
0.0591802 -0.07349 -0.0875811
0.0601652 -0.0746933 1.21697e-06
0.0591803 -0.0734901 0.0875779
0.0582995 -0.0727851 0.0727867
0.0591802 -0.0875811 -0.07349
0.0604001 -0.0872553 -0.0872553
0.0615141 -0.0874543 -2.22494e-06
0.0604001 -0.0872552 0.0872554
0.0591802 -0.08758 0.0734897
0.0601652 1.22205e-06 -0.0746933
0.0615141 -2.24593e-06 -0.0874543
0.0626751 3.25485e-06 3.32031e-06
0.0615141 -2.86749e-06 0.087453
0.0601652 5.82142e-07 0.0746957
0.0591803 0.087578 -0.0734902
0.0604001 0.0872554 -0.0872552
0.0615141 0.087453 -2.8667e-06
0.0604001 0.0872561 0.087256
0.0591802 0.087578 0.0734896
0.0582995 0.0727867 -0.0727851
0.0591802 0.0734897 -0.08758
0.0601652 0.0746957 5.94947e-07
0.0591803 0.0734895 0.087578
0.0582997 0.0727867 0.0727867
-0.0582989 -0.0727847 -0.0727848
-0.05918 -0.0734897 -0.087581
-0.0601675 -0.0746935 1.19338e-06
-0.0591802 -0.0734898 0.0875782
-0.058299 -0.0727848 0.0727866
-0.0591801 -0.0875812 -0.0734897
-0.0604021 -0.0872556 -0.0872556
-0.0615088 -0.0874541 -2.23234e-06
-0.060402 -0.0872555 0.0872558
-0.05918 -0.087581 0.0734894
-0.0601677 1.20077e-06 -0.0746935
-0.0615086 -2.23755e-06 -0.0874541
-0.0626764 2.80102e-06 2.77597e-06
-0.0615087 -2.22904e-06 0.0874534
-0.0601675 1.22921e-06 0.0746956
-0.0591802 0.0875782 -0.0734898
-0.0604023 0.0872558 -0.0872555
-0.0615086 0.0874533 -2.77725e-06
-0.0604022 0.0872557 0.0872563
-0.0591801 0.0875781 0.0734892
-0.058299 0.0727866 -0.0727848
-0.05918 0.0734893 -0.087581
-0.0601676 0.0746956 1.22764e-06
-0.0591801 0.0734894 0.0875781
-0.0582991 0.0727866 0.0727867
-0.0296179 -0.0721326 -0.0721326
-0.0296476 -0.0729523 -0.0867622
-0.0297536 -0.0742466 3.4231e-06
-0.0296472 -0.0729525 0.0867575
-0.0296179 -0.0721325 0.0721341
-0.0296472 -0.0867622 -0.0729523
-0.0296944 -0.0862704 -0.0862704
-0.0298036 -0.0864745 -3.24747e-06
-0.0296944 -0.0862698 0.0862753
-0.0296477 -0.0867622 0.0729512
-0.0297536 3.45898e-06 -0.0742466
-0.0298033 -3.2405e-06 -0.0864747
-0.02995 -1.23449e-07 -8.30966e-08
-0.0298036 -3.25586e-06 0.0864746
-0.0297536 3.43615e-06 0.0742458
-0.0296472 0.0867574 -0.0729523
-0.0296944 0.0862753 -0.0862705
-0.0298033 0.0864746 -2.73537e-06
-0.0296943 0.0862747 0.0862747
-0.0296473 0.0867574 0.0729514
-0.0296179 0.0721341 -0.0721325
-0.0296476 0.0729512 -0.0867622
-0.0297536 0.0742458 3.42957e-06
-0.0296472 0.0729514 0.0867572
-0.0296179 0.0721341 0.0721342
0.0296151 -0.0721324 -0.0721324
0.029651 -0.072952 -0.0867623
0.0297496 -0.0742468 4.01375e-06
0.0296503 -0.0729521 0.0867568
0.0296151 -0.0721324 0.0721341
0.029651 -0.0867623 -0.072952
0.02969 -0.0862712 -0.0862712
0.029812 -0.0864744 -2.73325e-06
0.0296899 -0.0862712 0.0862756
0.0296511 -0.0867621 0.072951
0.0297496 4.03042e-06 -0.0742468
0.029812 -2.66907e-06 -0.0864744
0.0299376 -1.1181e-06 -1.12563e-06
0.029812 -2.68598e-06 0.0864756
0.0297495 4.01682e-06 0.0742457
0.0296503 0.0867568 -0.072952
0.0296899 0.0862756 -0.0862712
0.0298121 0.0864756 -2.72383e-06
0.0296898 0.0862755 0.0862756
0.0296503 0.0867566 0.0729511
0.0296151 0.0721341 -0.0721324
0.029651 0.0729511 -0.0867622
0.0297495 0.0742457 4.06988e-06
0.0296503 0.0729511 0.0867568
0.0296151 0.0721342 0.0721341
0.0583053 -0.0727844 -0.0727843
0.0591772 -0.0734899 -0.087581
0.0601627 -0.0746931 1.23207e-06
0.0591774 -0.07349 0.087578
0.0583054 -0.0727845 0.0727862
0.0591772 -0.0875809 -0.0734899
0.0603929 -0.087256 -0.087256
0.0615272 -0.0874551 -2.2572e-06
0.0603931 -0.0872559 0.0872558
0.0591771 -0.0875808 0.0734897
0.0601627 1.23104e-06 -0.0746931
0.0615272 -2.23799e-06 -0.0874551
0.0626562 3.83848e-06 3.84267e-06
0.0615272 -2.77002e-06 0.0874531
0.0601627 1.21364e-06 0.0746958
0.0591774 0.087578 -0.07349
0.0603931 0.0872558 -0.087256
0.0615272 0.0874531 -2.7205e-06
0.0603932 0.0872566 0.0872566
0.0591774 0.0875778 0.0734894
0.0583054 0.0727862 -0.0727845
0.0591771 0.0734896 -0.0875808
0.0601627 0.0746958 1.2263e-06
0.0591774 0.0734894 0.0875778
0.0583056 0.0727864 0.0727864
SCALARS mass float 1
LOOKUP_TABLE default
1
1
1
1
1
1
1
1
1
1
1
1
1
1
1
1
1
1
1
1
1
1
1
1
1
1
1
1
1
1
1
1
1
1
1
1
1
1
1
1
1
1
1
1
1
1
1
1
1
1
1
1
1
1
1
1
1
1
1
1
1
1
1
1
1
1
1
1
1
1
1
1
1
1
1
1
1
1
1
1
1
1
1
1
1
1
1
1
1
1
1
1
1
1
1
1
1
1
1
1
1
1
1
1
1
1
1
1
1
1
1
1
1
1
1
1
1
1
1
1
1
1
1
1
1
1
1
1
1
1
1
1
1
1
1
1
1
1
1
1
1
1
1
1
1
1
1
1
1
1
1
1
1
1
1
1
1
1
1
1
1
1
1
1
1
1
1
1
1
1
1
1
1
1
1
1
1
1
1
1
1
1
1
1
1
1
1
1
1
1
1
1
1
1
1
1
1
1
1
1
