# vtk DataFile Version 3.0
Molecular Dynamics Particle Data
ASCII
DATASET POLYDATA
POINTS 200 float
0.437968 0.437276 0.437276
0.435128 0.434409 0.574099
0.434634 0.433897 0.7
0.435128 0.434409 0.825901
0.437968 0.437276 0.962723
0.435128 0.574099 0.434409
0.431821 0.573005 0.573005
0.43125 0.572746 0.7
0.431821 0.573005 0.826994
0.435128 0.574099 0.96559
0.434634 0.7 0.433897
0.43125 0.7 0.572746
0.430659 0.7 0.7
0.43125 0.7 0.827254
0.434634 0.7 0.966103
0.435128 0.825901 0.434409
0.431821 0.826994 0.573005
0.43125 0.827254 0.7
0.431821 0.826994 0.826994
0.435128 0.825901 0.96559
0.437968 0.962723 0.437276
0.435128 0.96559 0.574099
0.434634 0.966103 0.7
0.435128 0.96559 0.825901
0.437968 0.962723 0.962723
0.58096 0.434544 0.434544
0.580169 0.431227 0.573082
0.579993 0.430642 0.7
0.580169 0.431227 0.826918
0.58096 0.434544 0.965455
0.580169 0.573082 0.431227
0.579277 0.571858 0.571858
0.579076 0.571568 0.7
0.579277 0.571858 0.828142
0.580169 0.573082 0.968773
0.579993 0.7 0.430642
0.579076 0.7 0.571568
0.578869 0.7 0.7
0.579076 0.7 0.828432
0.579993 0.7 0.969358
0.580169 0.826918 0.431227
0.579277 0.828142 0.571858
0.579076 0.828432 0.7
0.579277 0.828142 0.828142
0.580169 0.826918 0.968773
0.58096 0.965455 0.434544
0.580169 0.968773 0.573082
0.579993 0.969358 0.7
0.580169 0.968773 0.826918
0.58096 0.965455 0.965455
0.719041 0.434544 0.434544
0.719831 0.431227 0.573082
0.720007 0.430642 0.7
0.719831 0.431227 0.826918
0.719041 0.434544 0.965455
0.719831 0.573082 0.431227
0.720722 0.571858 0.571858
0.720924 0.571568 0.7
0.720722 0.571858 0.828142
0.719831 0.573082 0.968773
0.720007 0.7 0.430642
0.720924 0.7 0.571568
0.721132 0.7 0.7
0.720924 0.7 0.828432
0.720007 0.7 0.969358
0.719831 0.826918 0.431227
0.720722 0.828142 0.571858
0.720924 0.828432 0.7
0.720722 0.828142 0.828142
0.719831 0.826918 0.968773
0.719041 0.965455 0.434544
0.719831 0.968773 0.573082
0.720007 0.969358 0.7
0.719831 0.968773 0.826918
0.719041 0.965455 0.965455
0.862033 0.437276 0.437276
0.864871 0.434409 0.574099
0.865366 0.433897 0.7
0.864871 0.434409 0.825901
0.862033 0.437276 0.962723
0.864871 0.574099 0.434409
0.868178 0.573005 0.573005
0.86875 0.572746 0.7
0.868178 0.573005 0.826994
0.864871 0.574099 0.96559
0.865366 0.7 0.433897
0.86875 0.7 0.572746
0.869342 0.7 0.7
0.86875 0.7 0.827254
0.865366 0.7 0.966103
0.864871 0.825901 0.434409
0.868178 0.826994 0.573005
0.86875 0.827254 0.7
0.868178 0.826994 0.826994
0.864871 0.825901 0.96559
0.862033 0.962723 0.437276
0.864871 0.96559 0.574099
0.865366 0.966103 0.7
0.864871 0.96559 0.825901
0.862033 0.962723 0.962723
1.93797 0.437276 0.437276
1.93513 0.434409 0.574099
1.93463 0.433897 0.7
1.93513 0.434409 0.825901
1.93797 0.437276 0.962723
1.93513 0.574099 0.434409
1.93182 0.573005 0.573005
1.93125 0.572746 0.7
1.93182 0.573005 0.826994
1.93513 0.574099 0.96559
1.93463 0.7 0.433897
1.93125 0.7 0.572746
1.93066 0.7 0.7
1.93125 0.7 0.827254
1.93463 0.7 0.966103
1.93513 0.825901 0.434409
1.93182 0.826994 0.573005
1.93125 0.827254 0.7
1.93182 0.826994 0.826994
1.93513 0.825901 0.96559
1.93797 0.962723 0.437276
1.93513 0.96559 0.574099
1.93463 0.966103 0.7
1.93513 0.96559 0.825901
1.93797 0.962723 0.962723
2.08096 0.434544 0.434544
2.08017 0.431227 0.573082
2.07999 0.430642 0.7
2.08017 0.431227 0.826918
2.08096 0.434544 0.965455
2.08017 0.573082 0.431227
2.07928 0.571858 0.571858
2.07908 0.571568 0.7
2.07928 0.571858 0.828142
2.08017 0.573082 0.968773
2.07999 0.7 0.430642
2.07908 0.7 0.571568
2.07887 0.7 0.7
2.07908 0.7 0.828432
2.07999 0.7 0.969358
2.08017 0.826918 0.431227
2.07928 0.828142 0.571858
2.07908 0.828432 0.7
2.07928 0.828142 0.828142
2.08017 0.826918 0.968773
2.08096 0.965455 0.434544
2.08017 0.968773 0.573082
2.07999 0.969358 0.7
2.08017 0.968773 0.826918
2.08096 0.965455 0.965455
2.21904 0.434544 0.434544
2.21983 0.431227 0.573082
2.22001 0.430642 0.7
2.21983 0.431227 0.826919
2.21904 0.434544 0.965456
2.21983 0.573082 0.431227
2.22072 0.571858 0.571858
2.22093 0.571568 0.7
2.22072 0.571858 0.828142
2.21983 0.573082 0.968773
2.22001 0.7 0.430642
2.22093 0.7 0.571568
2.22113 0.7 0.7
2.22093 0.7 0.828432
2.22001 0.7 0.969358
2.21983 0.826919 0.431227
2.22072 0.828142 0.571858
2.22093 0.828432 0.7
2.22072 0.828142 0.828142
2.21983 0.826919 0.968773
2.21904 0.965456 0.434544
2.21983 0.968773 0.573082
2.22001 0.969358 0.7
2.21983 0.968773 0.826919
2.21904 0.965456 0.965456
2.36203 0.437276 0.437276
2.36487 0.434409 0.574099
2.36537 0.433897 0.7
2.36487 0.434409 0.825901
2.36203 0.437276 0.962723
2.36487 0.574099 0.434409
2.36818 0.573005 0.573005
2.36875 0.572746 0.7
2.36818 0.573005 0.826994
2.36487 0.574099 0.96559
2.36537 0.7 0.433897
2.36875 0.7 0.572746
2.36934 0.7 0.7
2.36875 0.7 0.827254
2.36537 0.7 0.966103
2.36487 0.825901 0.434409
2.36818 0.826994 0.573005
2.36875 0.827254 0.7
2.36818 0.826994 0.826994
2.36487 0.825901 0.96559
2.36203 0.962723 0.437276
2.36487 0.96559 0.574099
2.36537 0.966103 0.7
2.36487 0.96559 0.825901
2.36203 0.962723 0.962723
VERTICES 200 400
1 0
1 1
1 2
1 3
1 4
1 5
1 6
1 7
1 8
1 9
1 10
1 11
1 12
1 13
1 14
1 15
1 16
1 17
1 18
1 19
1 20
1 21
1 22
1 23
1 24
1 25
1 26
1 27
1 28
1 29
1 30
1 31
1 32
1 33
1 34
1 35
1 36
1 37
1 38
1 39
1 40
1 41
1 42
1 43
1 44
1 45
1 46
1 47
1 48
1 49
1 50
1 51
1 52
1 53
1 54
1 55
1 56
1 57
1 58
1 59
1 60
1 61
1 62
1 63
1 64
1 65
1 66
1 67
1 68
1 69
1 70
1 71
1 72
1 73
1 74
1 75
1 76
1 77
1 78
1 79
1 80
1 81
1 82
1 83
1 84
1 85
1 86
1 87
1 88
1 89
1 90
1 91
1 92
1 93
1 94
1 95
1 96
1 97
1 98
1 99
1 100
1 101
1 102
1 103
1 104
1 105
1 106
1 107
1 108
1 109
1 110
1 111
1 112
1 113
1 114
1 115
1 116
1 117
1 118
1 119
1 120
1 121
1 122
1 123
1 124
1 125
1 126
1 127
1 128
1 129
1 130
1 131
1 132
1 133
1 134
1 135
1 136
1 137
1 138
1 139
1 140
1 141
1 142
1 143
1 144
1 145
1 146
1 147
1 148
1 149
1 150
1 151
1 152
1 153
1 154
1 155
1 156
1 157
1 158
1 159
1 160
1 161
1 162
1 163
1 164
1 165
1 166
1 167
1 168
1 169
1 170
1 171
1 172
1 173
1 174
1 175
1 176
1 177
1 178
1 179
1 180
1 181
1 182
1 183
1 184
1 185
1 186
1 187
1 188
1 189
1 190
1 191
1 192
1 193
1 194
1 195
1 196
1 197
1 198
1 199
POINT_DATA 200
VECTORS velocity float
-0.144239 -0.148513 -0.148513
-0.150415 -0.154743 -0.0842315
-0.151852 -0.156263 2.17147e-06
-0.150415 -0.154743 0.0842307
-0.144239 -0.148512 0.148512
-0.150415 -0.0842315 -0.154743
-0.157668 -0.0869309 -0.0869309
-0.159317 -0.0876838 -1.01146e-06
-0.157668 -0.0869309 0.0869307
-0.150415 -0.0842314 0.154742
-0.151852 2.1775e-06 -0.156263
-0.159317 -1.01266e-06 -0.0876838
-0.161028 9.66203e-07 9.64515e-07
-0.159317 -8.03048e-07 0.0876851
-0.151852 2.17346e-06 0.156264
-0.150415 0.0842307 -0.154743
-0.157668 0.0869307 -0.0869309
-0.159317 0.0876851 -8.04584e-07
-0.157668 0.0869304 0.0869304
-0.150415 0.0842305 0.154742
-0.144239 0.148512 -0.148513
-0.150415 0.154742 -0.0842314
-0.151852 0.156264 2.16966e-06
-0.150415 0.154742 0.0842305
-0.144239 0.148512 0.148512
-0.0547873 -0.154141 -0.154141
-0.0566539 -0.161364 -0.0866229
-0.05714 -0.16308 1.11803e-06
-0.0566539 -0.161364 0.0866232
-0.0547872 -0.154141 0.15414
-0.056654 -0.0866229 -0.161364
-0.0587457 -0.0895884 -0.0895884
-0.0593008 -0.0904257 -2.44227e-06
-0.0587455 -0.0895881 0.0895901
-0.056654 -0.0866229 0.161364
-0.05714 1.11367e-06 -0.16308
-0.0593008 -2.4418e-06 -0.0904256
-0.0598724 -1.55458e-07 -1.55134e-07
-0.0593007 -2.64134e-06 0.0904259
-0.0571399 1.11688e-06 0.163081
-0.0566538 0.0866232 -0.161364
-0.0587455 0.0895901 -0.0895881
-0.0593007 0.0904259 -2.6415e-06
-0.0587455 0.0895901 0.0895901
-0.0566538 0.0866232 0.161364
-0.0547872 0.15414 -0.154141
-0.0566539 0.161364 -0.0866228
-0.0571398 0.163081 1.11525e-06
-0.0566538 0.161364 0.0866232
-0.0547871 0.15414 0.15414
0.0547887 -0.154141 -0.154141
0.0566533 -0.161364 -0.086623
0.0571399 -0.16308 1.11811e-06
0.0566533 -0.161364 0.0866233
0.0547887 -0.154141 0.15414
0.0566533 -0.0866229 -0.161364
0.0587441 -0.0895884 -0.0895884
0.059301 -0.0904257 -2.4022e-06
0.058744 -0.0895881 0.0895901
0.0566534 -0.0866229 0.161364
0.0571399 1.11925e-06 -0.16308
0.059301 -2.43787e-06 -0.0904257
0.0598746 -2.25999e-07 -2.26674e-07
0.0593009 -2.64123e-06 0.0904259
0.0571397 1.12098e-06 0.163081
0.0566533 0.0866233 -0.161364
0.058744 0.0895902 -0.0895881
0.0593009 0.0904259 -2.59221e-06
0.0587441 0.0895901 0.0895901
0.0566533 0.0866233 0.161364
0.0547887 0.15414 -0.154141
0.0566533 0.161364 -0.0866229
0.0571397 0.163081 1.11814e-06
0.0566533 0.161364 0.0866233
0.0547886 0.15414 0.15414
0.144239 -0.148513 -0.148513
0.150415 -0.154742 -0.0842315
0.151852 -0.156263 2.17086e-06
0.150415 -0.154743 0.0842305
0.144239 -0.148512 0.148512
0.150415 -0.0842315 -0.154742
0.157668 -0.0869309 -0.0869309
0.159317 -0.0876838 -1.00765e-06
0.157668 -0.0869309 0.0869307
0.150415 -0.0842315 0.154742
0.151852 2.17649e-06 -0.156263
0.159317 -1.00796e-06 -0.0876838
0.161029 1.05759e-06 1.05719e-06
0.159317 -8.01483e-07 0.087685
0.151852 2.07525e-06 0.156264
0.150415 0.0842305 -0.154743
0.157668 0.0869307 -0.0869309
0.159317 0.087685 -8.02831e-07
0.157668 0.0869304 0.0869304
0.150415 0.0842305 0.154742
0.144239 0.148512 -0.148512
0.150415 0.154742 -0.0842315
0.151852 0.156264 2.06856e-06
0.150415 0.154742 0.0842305
0.144239 0.148512 0.148512
-0.144239 -0.148513 -0.148513
-0.150414 -0.154742 -0.0842315
-0.151853 -0.156263 2.17329e-06
-0.150414 -0.154743 0.0842307
-0.144238 -0.148513 0.148512
-0.150414 -0.0842315 -0.154742
-0.157672 -0.0869309 -0.0869309
-0.159315 -0.0876837 -1.01115e-06
-0.157672 -0.0869309 0.0869307
-0.150414 -0.0842315 0.154742
-0.151853 2.17677e-06 -0.156263
-0.159315 -1.01135e-06 -0.0876837
-0.161032 9.66559e-07 9.59387e-07
-0.159315 -1.00899e-06 0.0876851
-0.151853 2.1751e-06 0.156264
-0.150414 0.0842307 -0.154743
-0.157672 0.0869308 -0.0869309
-0.159315 0.0876851 -8.04014e-07
-0.157672 0.0869307 0.0869304
-0.150414 0.0842307 0.154742
-0.144238 0.148512 -0.148513
-0.150414 0.154742 -0.0842315
-0.151853 0.156264 2.17714e-06
-0.150414 0.154742 0.0842307
-0.144238 0.148512 0.148512
-0.0547907 -0.154142 -0.154142
-0.0566603 -0.161364 -0.0866229
-0.0571454 -0.16308 1.11817e-06
-0.0566602 -0.161364 0.0866234
-0.0547907 -0.154141 0.15414
-0.0566603 -0.0866229 -0.161364
-0.0587437 -0.089588 -0.089588
-0.0593009 -0.0904258 -2.68059e-06
-0.0587438 -0.0895879 0.08959
-0.0566603 -0.0866229 0.161364
-0.0571454 1.11789e-06 -0.16308
-0.0593008 -2.67971e-06 -0.0904258
-0.0598698 -2.42498e-07 -2.42804e-07
-0.059301 -2.66051e-06 0.090426
-0.0571454 1.11741e-06 0.163081
-0.0566602 0.0866234 -0.161364
-0.0587438 0.08959 -0.0895878
-0.0593009 0.090426 -2.78923e-06
-0.0587438 0.0895898 0.0895898
-0.0566602 0.0866234 0.161364
-0.0547907 0.15414 -0.154141
-0.0566603 0.161364 -0.0866229
-0.0571454 0.163081 1.11557e-06
-0.0566602 0.161364 0.0866232
-0.0547906 0.15414 0.15414
0.0547938 -0.154142 -0.154142
0.056651 -0.161364 -0.0866233
0.0571356 -0.16308 1.3055e-06
0.056651 -0.161364 0.0866236
0.0547938 -0.154142 0.15414
0.056651 -0.0866234 -0.161364
0.0587403 -0.0895882 -0.0895882
0.0593082 -0.0904259 -2.27798e-06
0.0587404 -0.0895883 0.0895897
0.056651 -0.0866233 0.161364
0.0571356 1.30643e-06 -0.16308
0.0593082 -2.2785e-06 -0.0904259
0.0598685 -3.3806e-08 -3.4763e-08
0.0593082 -2.27621e-06 0.0904258
0.0571356 1.30496e-06 0.163081
0.056651 0.0866236 -0.161364
0.0587404 0.0895897 -0.0895883
0.0593082 0.0904258 -2.27913e-06
0.0587404 0.0895898 0.0895898
0.056651 0.0866236 0.161364
0.0547938 0.15414 -0.154142
0.056651 0.161364 -0.0866233
0.0571356 0.163081 1.30484e-06
0.056651 0.161364 0.0866236
0.0547938 0.15414 0.15414
0.14424 -0.148512 -0.148512
0.15042 -0.154743 -0.0842315
0.151859 -0.156263 2.17235e-06
0.15042 -0.154743 0.0842307
0.14424 -0.148512 0.148512
0.15042 -0.0842315 -0.154743
0.157669 -0.0869313 -0.0869313
0.159322 -0.0876841 -1.03231e-06
0.15767 -0.0869313 0.0869309
0.15042 -0.0842314 0.154742
0.151859 2.17867e-06 -0.156263
0.159322 -1.03147e-06 -0.0876841
0.16102 1.11698e-06 1.11615e-06
0.159322 -8.20765e-07 0.0876852
0.151859 2.17886e-06 0.156264
0.15042 0.0842307 -0.154743
0.15767 0.0869309 -0.0869313
0.159322 0.0876852 -8.24472e-07
0.15767 0.0869306 0.0869306
0.15042 0.0842305 0.154742
0.14424 0.148512 -0.148512
0.15042 0.154742 -0.0842314
0.151859 0.156264 2.17034e-06
0.15042 0.154742 0.0842305
0.14424 0.148512 0.148512
VECTORS force float
-0.0348084 -0.0491675 -0.0491674
-0.0350943 -0.0488814 -0.0450974
-0.0353732 -0.049259 -6.66347e-07
-0.0350944 -0.0488814 0.0450978
-0.0348085 -0.0491675 0.0491678
-0.0350943 -0.0450974 -0.0488814
-0.0355891 -0.0447176 -0.0447175
-0.0359266 -0.0445817 -1.53203e-06
-0.0355891 -0.0447176 0.044718
-0.0350943 -0.0450973 0.0488814
-0.0353733 -6.6813e-07 -0.049259
-0.0359266 -1.50198e-06 -0.0445817
-0.0362776 2.05052e-06 2.05135e-06
-0.0359268 -1.81813e-06 0.0445798
-0.0353732 -6.6811e-07 0.0492605
-0.0350944 0.0450978 -0.0488814
-0.0355891 0.044718 -0.0447176
-0.0359267 0.0445798 -1.83332e-06
-0.0355891 0.0447184 0.0447184
-0.0350944 0.0450977 0.0488814
-0.0348085 0.0491678 -0.0491675
-0.0350944 0.0488814 -0.0450973
-0.0353732 0.0492605 -6.28574e-07
-0.0350944 0.0488813 0.0450976
-0.0348086 0.0491679 0.0491679
-0.0110803 -0.0477381 -0.0477381
-0.0112883 -0.0474527 -0.0444817
-0.0112964 -0.0478616 2.22526e-06
-0.0112883 -0.0474528 0.0444782
-0.0110803 -0.0477381 0.0477395
-0.0112883 -0.0444816 -0.0474528
-0.0115065 -0.0440062 -0.0440062
-0.0115353 -0.0438731 7.58883e-09
-0.0115065 -0.0440061 0.0440058
-0.0112885 -0.0444816 0.0474529
-0.0112964 2.2018e-06 -0.0478616
-0.0115353 3.18909e-09 -0.043873
-0.0115727 -2.64466e-07 -2.65185e-07
-0.0115352 2.85313e-07 0.043874
-0.0112964 2.21848e-06 0.0478615
-0.0112882 0.0444782 -0.0474528
-0.0115064 0.0440058 -0.0440061
-0.0115352 0.043874 2.80293e-07
-0.0115064 0.0440054 0.0440054
-0.0112882 0.0444781 0.0474531
-0.0110802 0.0477395 -0.0477381
-0.0112883 0.0474529 -0.0444816
-0.0112963 0.0478615 2.20562e-06
-0.0112882 0.0474531 0.0444781
-0.0110802 0.0477395 0.0477395
0.0110801 -0.0477381 -0.0477381
0.0112877 -0.0474527 -0.0444817
0.0112964 -0.0478616 2.22734e-06
0.0112877 -0.0474528 0.0444782
0.0110801 -0.0477381 0.0477396
0.0112877 -0.0444817 -0.0474527
0.011506 -0.0440062 -0.0440062
0.0115356 -0.0438732 2.77377e-07
0.011506 -0.0440061 0.0440054
0.0112878 -0.0444816 0.047453
0.0112964 2.20334e-06 -0.0478616
0.0115356 1.90508e-10 -0.0438732
0.0115733 -5.40851e-07 -5.30029e-07
0.0115355 2.88336e-07 0.0438743
0.0112964 2.2265e-06 0.0478614
0.0112877 0.0444782 -0.0474528
0.0115059 0.0440058 -0.0440061
0.0115355 0.0438744 2.78596e-07
0.0115059 0.0440054 0.0440054
0.0112877 0.0444781 0.0474531
0.0110801 0.0477396 -0.0477382
0.0112877 0.0474529 -0.0444815
0.0112964 0.0478614 2.2054e-06
0.0112877 0.0474531 0.0444781
0.0110801 0.0477395 0.0477395
0.0348093 -0.0491675 -0.0491675
0.0350942 -0.0488814 -0.0450973
0.035374 -0.049259 -7.06425e-07
0.0350942 -0.0488814 0.0450976
0.0348093 -0.049168 0.0491679
0.0350942 -0.0450972 -0.0488814
0.0355879 -0.0447176 -0.0447176
0.0359269 -0.0445817 -1.51826e-06
0.0355879 -0.0447176 0.044718
0.0350942 -0.0450962 0.0488814
0.035374 -6.31255e-07 -0.049259
0.0359269 -1.49618e-06 -0.0445818
0.0362793 2.36151e-06 2.36861e-06
0.0359269 -1.82524e-06 0.0445795
0.035374 -1.28946e-06 0.0492607
0.0350942 0.0450976 -0.0488814
0.0355879 0.044718 -0.0447176
0.0359269 0.0445795 -1.84413e-06
0.0355879 0.0447184 0.0447184
0.0350942 0.0450976 0.0488813
0.0348093 0.0491679 -0.049168
0.0350942 0.0488814 -0.0450962
0.035374 0.0492607 -1.29508e-06
0.0350942 0.0488813 0.0450976
0.0348094 0.0491679 0.0491679
-0.0348096 -0.0491675 -0.0491676
-0.0350955 -0.0488811 -0.0450972
-0.035376 -0.0492591 -6.77113e-07
-0.0350955 -0.0488811 0.0450977
-0.0348096 -0.0491676 0.0491679
-0.0350955 -0.0450973 -0.0488811
-0.03559 -0.0447179 -0.0447179
-0.0359225 -0.0445815 -1.5008e-06
-0.0355899 -0.0447179 0.0447183
-0.0350955 -0.0450972 0.0488811
-0.0353761 -6.77072e-07 -0.0492591
-0.0359224 -1.49236e-06 -0.0445815
-0.0362815 2.10003e-06 2.08977e-06
-0.0359228 -1.49632e-06 0.0445796
-0.035376 -6.75904e-07 0.0492607
-0.0350955 0.0450977 -0.0488811
-0.0355901 0.0447183 -0.0447179
-0.0359223 0.0445796 -1.86851e-06
-0.0355901 0.0447183 0.0447187
-0.0350955 0.0450977 0.048881
-0.0348096 0.0491679 -0.0491676
-0.0350955 0.0488811 -0.0450972
-0.035376 0.0492607 -6.80716e-07
-0.0350955 0.0488812 0.0450977
-0.0348097 0.0491679 0.0491679
-0.0110721 -0.0477382 -0.0477382
-0.0112872 -0.0474528 -0.044482
-0.0112979 -0.0478614 2.20721e-06
-0.011287 -0.047453 0.0444786
-0.0110721 -0.0477382 0.0477396
-0.011287 -0.044482 -0.0474528
-0.0115128 -0.0440059 -0.0440058
-0.0115295 -0.0438733 -2.65799e-07
-0.0115127 -0.0440055 0.0440057
-0.0112872 -0.0444819 0.0474528
-0.0112979 2.22176e-06 -0.0478613
-0.0115293 -3.03478e-07 -0.0438734
-0.0115709 -6.90317e-09 2.74974e-08
-0.0115291 -2.54444e-07 0.0438739
-0.0112978 2.2201e-06 0.0478614
-0.011287 0.0444786 -0.0474528
-0.011513 0.0440058 -0.0440059
-0.0115293 0.0438739 1.00993e-08
-0.0115128 0.0440053 0.0440054
-0.011287 0.0444785 0.047453
-0.0110721 0.0477395 -0.0477382
-0.0112872 0.0474528 -0.0444819
-0.0112979 0.0478614 2.16117e-06
-0.011287 0.047453 0.0444784
-0.0110721 0.0477395 0.0477396
0.0110712 -0.0477381 -0.047738
0.0112911 -0.0474525 -0.0444819
0.0112993 -0.0478614 2.50788e-06
0.0112908 -0.0474526 0.0444782
0.0110712 -0.0477381 0.0477394
0.0112911 -0.0444818 -0.0474525
0.01151 -0.0440064 -0.0440064
0.0115346 -0.0438734 -3.06532e-09
0.0115099 -0.0440064 0.0440061
0.0112911 -0.0444817 0.0474526
0.0112993 2.50012e-06 -0.0478614
0.0115346 -3.73823e-09 -0.0438734
0.0115621 -5.49456e-07 -5.62847e-07
0.0115341 9.56439e-09 0.0438747
0.0112993 2.51256e-06 0.0478612
0.0112908 0.0444782 -0.0474526
0.01151 0.0440061 -0.0440064
0.0115346 0.0438746 4.64221e-09
0.0115099 0.044006 0.044006
0.0112908 0.044478 0.0474527
0.0110712 0.0477394 -0.0477381
0.0112912 0.0474527 -0.0444817
0.0112993 0.0478612 2.50804e-06
0.0112908 0.0474527 0.0444781
0.0110712 0.0477395 0.0477394
0.0348131 -0.0491672 -0.0491672
0.0350911 -0.0488813 -0.0450971
0.0353711 -0.0492588 -6.64407e-07
0.0350911 -0.0488813 0.0450976
0.0348132 -0.0491673 0.0491675
0.0350911 -0.0450971 -0.0488813
0.0355838 -0.0447179 -0.0447179
0.0359342 -0.0445821 -1.83982e-06
0.0355839 -0.0447179 0.0447182
0.0350911 -0.045097 0.0488814
0.0353712 -6.63424e-07 -0.0492588
0.0359342 -1.79217e-06 -0.0445821
0.0362697 2.64107e-06 2.63864e-06
0.0359342 -2.09009e-06 0.0445796
0.0353711 -6.59511e-07 0.0492608
0.0350911 0.0450976 -0.0488813
0.0355839 0.0447182 -0.0447179
0.0359343 0.0445796 -2.13316e-06
0.035584 0.0447187 0.0447188
0.0350912 0.0450975 0.0488812
0.0348132 0.0491675 -0.0491673
0.0350911 0.0488814 -0.045097
0.0353711 0.0492608 -6.65215e-07
0.0350912 0.0488812 0.0450975
0.0348133 0.0491676 0.0491676
SCALARS mass float 1
LOOKUP_TABLE default
1
1
1
1
1
1
1
1
1
1
1
1
1
1
1
1
1
1
1
1
1
1
1
1
1
1
1
1
1
1
1
1
1
1
1
1
1
1
1
1
1
1
1
1
1
1
1
1
1
1
1
1
1
1
1
1
1
1
1
1
1
1
1
1
1
1
1
1
1
1
1
1
1
1
1
1
1
1
1
1
1
1
1
1
1
1
1
1
1
1
1
1
1
1
1
1
1
1
1
1
1
1
1
1
1
1
1
1
1
1
1
1
1
1
1
1
1
1
1
1
1
1
1
1
1
1
1
1
1
1
1
1
1
1
1
1
1
1
1
1
1
1
1
1
1
1
1
1
1
1
1
1
1
1
1
1
1
1
1
1
1
1
1
1
1
1
1
1
1
1
1
1
1
1
1
1
1
1
1
1
1
1
1
1
1
1
1
1
1
1
1
1
1
1
1
1
1
1
1
1
