# vtk DataFile Version 3.0
Molecular Dynamics Particle Data
ASCII
DATASET POLYDATA
POINTS 200 float
0.408608 0.406797 0.406797
0.40453 0.402695 0.556663
0.403747 0.401877 0.7
0.40453 0.402695 0.843337
0.408608 0.406797 0.993203
0.40453 0.556663 0.402695
0.399765 0.555033 0.555033
0.398863 0.554627 0.7
0.399765 0.555033 0.844966
0.40453 0.556663 0.997304
0.403747 0.7 0.401877
0.398863 0.7 0.554627
0.397928 0.7 0.7
0.398863 0.7 0.845374
0.403747 0.7 0.998124
0.40453 0.843337 0.402695
0.399765 0.844966 0.555033
0.398863 0.845374 0.7
0.399765 0.844966 0.844966
0.40453 0.843337 0.997304
0.408608 0.993203 0.406797
0.40453 0.997304 0.556663
0.403747 0.998124 0.7
0.40453 0.997304 0.843337
0.408608 0.993203 0.993203
0.569883 0.40297 0.40297
0.568713 0.39822 0.555174
0.56844 0.397289 0.7
0.568713 0.398219 0.844826
0.569883 0.40297 0.99703
0.568713 0.555174 0.39822
0.567397 0.553363 0.553363
0.567085 0.552908 0.7
0.567397 0.553363 0.846637
0.568713 0.555174 1.00178
0.56844 0.7 0.397289
0.567085 0.7 0.552908
0.566763 0.7 0.7
0.567085 0.7 0.847092
0.56844 0.7 1.00271
0.568713 0.844826 0.398219
0.567397 0.846637 0.553363
0.567085 0.847092 0.7
0.567397 0.846638 0.846638
0.568713 0.844826 1.00178
0.569883 0.99703 0.40297
0.568713 1.00178 0.555174
0.56844 1.00271 0.7
0.568713 1.00178 0.844826
0.569883 0.99703 0.99703
0.730118 0.40297 0.40297
0.731287 0.39822 0.555174
0.73156 0.397289 0.7
0.731287 0.398219 0.844826
0.730118 0.40297 0.99703
0.731287 0.555174 0.39822
0.732602 0.553363 0.553363
0.732915 0.552908 0.7
0.732602 0.553363 0.846638
0.731287 0.555174 1.00178
0.73156 0.7 0.397289
0.732915 0.7 0.552908
0.733238 0.7 0.7
0.732915 0.7 0.847092
0.73156 0.7 1.00271
0.731287 0.844826 0.398219
0.732602 0.846638 0.553363
0.732915 0.847092 0.7
0.732602 0.846638 0.846638
0.731287 0.844826 1.00178
0.730118 0.99703 0.40297
0.731287 1.00178 0.555174
0.73156 1.00271 0.7
0.731287 1.00178 0.844826
0.730118 0.99703 0.99703
0.891392 0.406797 0.406797
0.89547 0.402695 0.556663
0.896253 0.401877 0.7
0.89547 0.402695 0.843337
0.891392 0.406797 0.993203
0.89547 0.556663 0.402695
0.900234 0.555033 0.555033
0.901137 0.554627 0.7
0.900234 0.555033 0.844966
0.89547 0.556663 0.997304
0.896253 0.7 0.401877
0.901137 0.7 0.554627
0.902073 0.7 0.7
0.901137 0.7 0.845374
0.896253 0.7 0.998124
0.89547 0.843337 0.402695
0.900234 0.844966 0.555033
0.901137 0.845374 0.7
0.900234 0.844966 0.844966
0.89547 0.843337 0.997304
0.891392 0.993203 0.406797
0.89547 0.997304 0.556663
0.896253 0.998124 0.7
0.89547 0.997304 0.843337
0.891392 0.993203 0.993203
1.90861 0.406797 0.406797
1.90453 0.402695 0.556663
1.90375 0.401877 0.7
1.90453 0.402695 0.843337
1.90861 0.406797 0.993203
1.90453 0.556663 0.402695
1.89976 0.555033 0.555033
1.89886 0.554627 0.7
1.89976 0.555033 0.844966
1.90453 0.556663 0.997304
1.90375 0.7 0.401877
1.89886 0.7 0.554627
1.89793 0.7 0.7
1.89886 0.7 0.845374
1.90375 0.7 0.998124
1.90453 0.843337 0.402695
1.89976 0.844966 0.555033
1.89886 0.845374 0.7
1.89976 0.844966 0.844966
1.90453 0.843337 0.997304
1.90861 0.993203 0.406797
1.90453 0.997304 0.556663
1.90375 0.998124 0.7
1.90453 0.997304 0.843337
1.90861 0.993203 0.993203
2.06989 0.40297 0.40297
2.06871 0.398219 0.555174
2.06844 0.397289 0.7
2.06871 0.398219 0.844826
2.06989 0.40297 0.99703
2.06871 0.555174 0.398219
2.0674 0.553363 0.553363
2.06708 0.552908 0.7
2.0674 0.553363 0.846637
2.06871 0.555174 1.00178
2.06844 0.7 0.397289
2.06708 0.7 0.552908
2.06676 0.7 0.7
2.06708 0.7 0.847092
2.06844 0.7 1.00271
2.06871 0.844826 0.398219
2.0674 0.846637 0.553363
2.06708 0.847092 0.7
2.0674 0.846637 0.846637
2.06871 0.844826 1.00178
2.06989 0.99703 0.40297
2.06871 1.00178 0.555174
2.06844 1.00271 0.7
2.06871 1.00178 0.844826
2.06989 0.99703 0.99703
2.23012 0.40297 0.40297
2.23128 0.39822 0.555174
2.23155 0.397289 0.7
2.23128 0.398219 0.844826
2.23012 0.40297 0.99703
2.23128 0.555174 0.39822
2.2326 0.553363 0.553363
2.23292 0.552908 0.7
2.2326 0.553363 0.846637
2.23128 0.555174 1.00178
2.23155 0.7 0.397289
2.23292 0.7 0.552908
2.23324 0.7 0.7
2.23292 0.7 0.847092
2.23155 0.7 1.00271
2.23128 0.844826 0.398219
2.2326 0.846637 0.553363
2.23292 0.847092 0.7
2.2326 0.846637 0.846637
2.23128 0.844826 1.00178
2.23012 0.99703 0.40297
2.23128 1.00178 0.555174
2.23155 1.00271 0.7
2.23128 1.00178 0.844826
2.23012 0.99703 0.99703
2.39139 0.406797 0.406797
2.39547 0.402694 0.556663
2.39625 0.401877 0.7
2.39547 0.402694 0.843337
2.39139 0.406797 0.993203
2.39547 0.556663 0.402694
2.40024 0.555033 0.555033
2.40114 0.554627 0.7
2.40024 0.555033 0.844967
2.39547 0.556663 0.997304
2.39625 0.7 0.401877
2.40114 0.7 0.554627
2.40207 0.7 0.7
2.40114 0.7 0.845374
2.39625 0.7 0.998124
2.39547 0.843337 0.402694
2.40024 0.844967 0.555033
2.40114 0.845374 0.7
2.40024 0.844966 0.844966
2.39547 0.843337 0.997304
2.39139 0.993203 0.406797
2.39547 0.997304 0.556663
2.39625 0.998124 0.7
2.39547 0.997304 0.843337
2.39139 0.993203 0.993203
VERTICES 200 400
1 0
1 1
1 2
1 3
1 4
1 5
1 6
1 7
1 8
1 9
1 10
1 11
1 12
1 13
1 14
1 15
1 16
1 17
1 18
1 19
1 20
1 21
1 22
1 23
1 24
1 25
1 26
1 27
1 28
1 29
1 30
1 31
1 32
1 33
1 34
1 35
1 36
1 37
1 38
1 39
1 40
1 41
1 42
1 43
1 44
1 45
1 46
1 47
1 48
1 49
1 50
1 51
1 52
1 53
1 54
1 55
1 56
1 57
1 58
1 59
1 60
1 61
1 62
1 63
1 64
1 65
1 66
1 67
1 68
1 69
1 70
1 71
1 72
1 73
1 74
1 75
1 76
1 77
1 78
1 79
1 80
1 81
1 82
1 83
1 84
1 85
1 86
1 87
1 88
1 89
1 90
1 91
1 92
1 93
1 94
1 95
1 96
1 97
1 98
1 99
1 100
1 101
1 102
1 103
1 104
1 105
1 106
1 107
1 108
1 109
1 110
1 111
1 112
1 113
1 114
1 115
1 116
1 117
1 118
1 119
1 120
1 121
1 122
1 123
1 124
1 125
1 126
1 127
1 128
1 129
1 130
1 131
1 132
1 133
1 134
1 135
1 136
1 137
1 138
1 139
1 140
1 141
1 142
1 143
1 144
1 145
1 146
1 147
1 148
1 149
1 150
1 151
1 152
1 153
1 154
1 155
1 156
1 157
1 158
1 159
1 160
1 161
1 162
1 163
1 164
1 165
1 166
1 167
1 168
1 169
1 170
1 171
1 172
1 173
1 174
1 175
1 176
1 177
1 178
1 179
1 180
1 181
1 182
1 183
1 184
1 185
1 186
1 187
1 188
1 189
1 190
1 191
1 192
1 193
1 194
1 195
1 196
1 197
1 198
1 199
POINT_DATA 200
VECTORS velocity float
-0.148646 -0.155433 -0.155433
-0.154852 -0.161541 -0.0889865
-0.156281 -0.163055 2.08208e-06
-0.154852 -0.161541 0.0889858
-0.148646 -0.155433 0.155432
-0.154852 -0.0889865 -0.161541
-0.162164 -0.0916724 -0.0916724
-0.163811 -0.092395 -1.1886e-06
-0.162164 -0.0916724 0.0916721
-0.154852 -0.0889865 0.161541
-0.156281 2.08871e-06 -0.163055
-0.163811 -1.18976e-06 -0.092395
-0.165521 1.21923e-06 1.21751e-06
-0.163811 -1.05067e-06 0.0923961
-0.156281 2.09437e-06 0.163056
-0.154852 0.0889858 -0.161541
-0.162164 0.0916721 -0.0916724
-0.163811 0.0923961 -1.05215e-06
-0.162164 0.0916719 0.0916719
-0.154852 0.0889856 0.161541
-0.148646 0.155432 -0.155433
-0.154852 0.161541 -0.0889865
-0.156281 0.163056 2.09069e-06
-0.154852 0.161541 0.0889856
-0.148646 0.155432 0.155432
-0.0556525 -0.160755 -0.160755
-0.0575795 -0.167851 -0.0913372
-0.0580662 -0.169564 1.37592e-06
-0.0575795 -0.167851 0.091337
-0.0556524 -0.160755 0.160754
-0.0575796 -0.0913371 -0.167851
-0.0597314 -0.0942785 -0.0942785
-0.0602901 -0.0950869 -2.39658e-06
-0.0597312 -0.0942783 0.0942801
-0.0575796 -0.0913371 0.167851
-0.0580662 1.37113e-06 -0.169564
-0.0602901 -2.39647e-06 -0.0950867
-0.0608665 -1.53425e-07 -1.52687e-07
-0.06029 -2.53578e-06 0.0950871
-0.0580661 1.37381e-06 0.169564
-0.0575795 0.091337 -0.167851
-0.0597312 0.0942801 -0.0942783
-0.06029 0.0950871 -2.53572e-06
-0.0597312 0.09428 0.09428
-0.0575794 0.091337 0.167851
-0.0556524 0.160754 -0.160755
-0.0575795 0.167851 -0.0913371
-0.0580661 0.169564 1.3729e-06
-0.0575794 0.167851 0.091337
-0.0556523 0.160754 0.160754
0.0556538 -0.160755 -0.160755
0.0575789 -0.167851 -0.0913372
0.0580661 -0.169564 1.39543e-06
0.0575789 -0.167851 0.0913371
0.0556538 -0.160755 0.160754
0.0575789 -0.0913372 -0.167851
0.0597298 -0.0942785 -0.0942785
0.0602903 -0.0950869 -2.3238e-06
0.0597297 -0.0942783 0.09428
0.057579 -0.0913371 0.167851
0.0580661 1.39706e-06 -0.169564
0.0602903 -2.37251e-06 -0.0950869
0.0608688 -2.49506e-07 -2.48286e-07
0.0602902 -2.56343e-06 0.0950871
0.0580659 1.39845e-06 0.169564
0.0575789 0.0913371 -0.167851
0.0597297 0.0942801 -0.0942783
0.0602902 0.0950872 -2.48578e-06
0.0597297 0.0942801 0.09428
0.0575789 0.091337 0.167851
0.0556538 0.160754 -0.160755
0.0575789 0.167851 -0.0913371
0.0580659 0.169564 1.39552e-06
0.0575789 0.167851 0.091337
0.0556537 0.160754 0.160754
0.148646 -0.155433 -0.155433
0.154852 -0.161541 -0.0889865
0.156282 -0.163055 2.08166e-06
0.154852 -0.161541 0.0889856
0.148646 -0.155433 0.155432
0.154852 -0.0889865 -0.161541
0.162163 -0.0916724 -0.0916724
0.163811 -0.0923951 -1.19169e-06
0.162163 -0.0916724 0.0916721
0.154852 -0.0889864 0.161541
0.156282 2.09717e-06 -0.163055
0.163811 -1.19196e-06 -0.0923951
0.165523 1.34636e-06 1.34628e-06
0.163811 -1.04938e-06 0.092396
0.156282 1.91717e-06 0.163056
0.154852 0.0889856 -0.161541
0.162163 0.0916721 -0.0916724
0.163811 0.092396 -1.0509e-06
0.162163 0.0916719 0.0916719
0.154852 0.0889856 0.161541
0.148646 0.155432 -0.155433
0.154852 0.161541 -0.0889864
0.156282 0.163056 1.91036e-06
0.154852 0.161541 0.0889856
0.148645 0.155432 0.155432
-0.148646 -0.155433 -0.155433
-0.154851 -0.161541 -0.0889865
-0.156283 -0.163055 2.08416e-06
-0.154851 -0.161541 0.0889858
-0.148645 -0.155433 0.155432
-0.154851 -0.0889865 -0.161541
-0.162167 -0.0916724 -0.0916724
-0.163808 -0.0923949 -1.19686e-06
-0.162167 -0.0916724 0.0916722
-0.154851 -0.0889865 0.161541
-0.156283 2.0873e-06 -0.163055
-0.163808 -1.19648e-06 -0.0923949
-0.165527 1.22144e-06 1.21282e-06
-0.163808 -1.19449e-06 0.092396
-0.156283 2.08725e-06 0.163056
-0.154851 0.0889858 -0.161541
-0.162167 0.0916723 -0.0916725
-0.163808 0.092396 -1.06042e-06
-0.162167 0.0916722 0.091672
-0.154851 0.0889858 0.161541
-0.148645 0.155432 -0.155433
-0.154851 0.161541 -0.0889865
-0.156283 0.163056 2.08709e-06
-0.154851 0.161541 0.0889858
-0.148645 0.155432 0.155432
-0.0556548 -0.160755 -0.160755
-0.0575857 -0.167851 -0.0913372
-0.0580717 -0.169564 1.39512e-06
-0.0575857 -0.167851 0.0913372
-0.0556548 -0.160755 0.160754
-0.0575857 -0.0913372 -0.167851
-0.0597302 -0.0942782 -0.0942781
-0.0602894 -0.0950869 -2.63991e-06
-0.0597302 -0.094278 0.09428
-0.0575857 -0.0913372 0.167851
-0.0580717 1.39584e-06 -0.169564
-0.0602893 -2.63785e-06 -0.0950869
-0.0608639 -2.02775e-07 -2.00427e-07
-0.0602895 -2.59662e-06 0.0950872
-0.0580716 1.39394e-06 0.169564
-0.0575857 0.0913372 -0.167851
-0.0597303 0.09428 -0.094278
-0.0602894 0.0950872 -2.69382e-06
-0.0597303 0.0942797 0.0942797
-0.0575857 0.0913372 0.167851
-0.0556548 0.160754 -0.160755
-0.0575857 0.167851 -0.0913372
-0.0580716 0.169564 1.37183e-06
-0.0575856 0.167851 0.091337
-0.0556548 0.160754 0.160754
0.0556579 -0.160755 -0.160755
0.0575771 -0.167851 -0.0913376
0.0580623 -0.169563 1.61629e-06
0.057577 -0.167851 0.0913373
0.0556579 -0.160755 0.160754
0.0575771 -0.0913376 -0.167851
0.0597264 -0.0942784 -0.0942784
0.0602974 -0.0950871 -2.23544e-06
0.0597264 -0.0942785 0.0942798
0.0575771 -0.0913375 0.167851
0.0580623 1.58764e-06 -0.169563
0.0602974 -2.23657e-06 -0.0950871
0.0608613 -8.76773e-08 -8.67609e-08
0.0602974 -2.23446e-06 0.0950871
0.0580622 1.59321e-06 0.169564
0.057577 0.0913374 -0.167851
0.0597265 0.0942798 -0.0942785
0.0602975 0.0950871 -2.23484e-06
0.0597265 0.0942798 0.0942798
0.057577 0.0913373 0.167851
0.0556579 0.160754 -0.160755
0.0575771 0.167851 -0.0913375
0.0580622 0.169564 1.59234e-06
0.057577 0.167851 0.0913373
0.0556579 0.160754 0.160754
0.148648 -0.155433 -0.155433
0.154856 -0.161542 -0.0889865
0.156288 -0.163055 2.08379e-06
0.154856 -0.161542 0.0889857
0.148648 -0.155433 0.155432
0.154856 -0.0889865 -0.161542
0.162164 -0.0916728 -0.0916728
0.163816 -0.0923953 -1.24594e-06
0.162164 -0.0916728 0.0916723
0.154856 -0.0889864 0.161541
0.156288 2.08969e-06 -0.163055
0.163816 -1.24489e-06 -0.0923953
0.165513 1.43648e-06 1.43555e-06
0.163816 -1.07727e-06 0.0923962
0.156288 2.1001e-06 0.163056
0.154856 0.0889858 -0.161542
0.162164 0.0916723 -0.0916728
0.163816 0.0923962 -1.0808e-06
0.162164 0.0916722 0.0916721
0.154856 0.0889856 0.161541
0.148648 0.155432 -0.155433
0.154856 0.161541 -0.0889864
0.156288 0.163056 2.09168e-06
0.154856 0.161541 0.0889855
0.148648 0.155432 0.155432
VECTORS force float
-0.0130239 -0.0234392 -0.0234392
-0.0131316 -0.0227127 -0.0100556
-0.0129215 -0.0224343 -3.34938e-07
-0.0131316 -0.0227127 0.0100562
-0.0130239 -0.0234392 0.0234391
-0.0131316 -0.0100556 -0.0227127
-0.0133321 -0.0102545 -0.0102545
-0.0131343 -0.0101442 -4.67613e-07
-0.0133322 -0.0102545 0.0102541
-0.0131316 -0.0100556 0.0227129
-0.0129215 -3.32569e-07 -0.0224343
-0.0131343 -4.68366e-07 -0.0101442
-0.0129414 8.87133e-07 8.99907e-07
-0.0131344 -6.53029e-07 0.0101435
-0.0129215 -2.2798e-07 0.022435
-0.0131316 0.0100562 -0.0227127
-0.0133322 0.0102541 -0.0102545
-0.0131344 0.0101435 -6.55312e-07
-0.0133322 0.0102544 0.0102544
-0.0131316 0.0100561 0.0227128
-0.0130239 0.0234391 -0.0234393
-0.0131316 0.0227129 -0.0100556
-0.0129215 0.022435 -2.20774e-07
-0.0131316 0.0227128 0.0100561
-0.013024 0.0234392 0.0234392
-0.000702449 -0.0219867 -0.0219867
-0.00103536 -0.0212345 -0.0101709
-0.00104148 -0.0209668 6.86142e-07
-0.00103538 -0.0212344 0.0101693
-0.00070244 -0.0219867 0.0219875
-0.00103534 -0.0101709 -0.0212345
-0.00135559 -0.0103426 -0.0103426
-0.00137243 -0.0102394 3.51042e-07
-0.00135558 -0.0103427 0.0103417
-0.00103534 -0.0101709 0.0212349
-0.00104147 6.8613e-07 -0.0209668
-0.00137243 3.65695e-07 -0.0102394
-0.00139323 1.10821e-07 1.17328e-07
-0.0013725 5.23932e-07 0.0102393
-0.00104147 6.79915e-07 0.0209669
-0.00103535 0.0101693 -0.0212344
-0.00135558 0.0103417 -0.0103427
-0.00137249 0.0102393 5.22794e-07
-0.00135558 0.0103416 0.0103416
-0.00103536 0.0101693 0.021235
-0.000702438 0.0219875 -0.0219867
-0.00103537 0.0212349 -0.0101709
-0.00104147 0.0209669 6.838e-07
-0.00103536 0.021235 0.0101693
-0.000702455 0.0219875 0.0219875
0.000702113 -0.0219867 -0.0219867
0.00103526 -0.0212344 -0.0101709
0.00104145 -0.0209668 7.77951e-07
0.00103528 -0.0212345 0.0101692
0.000702064 -0.0219867 0.0219876
0.00103523 -0.0101709 -0.0212344
0.00135531 -0.0103426 -0.0103426
0.00137254 -0.0102394 4.4265e-07
0.00135532 -0.0103426 0.0103416
0.00103523 -0.0101708 0.021235
0.00104145 7.65063e-07 -0.0209668
0.00137254 4.42191e-07 -0.0102394
0.00139358 1.09872e-07 1.13275e-07
0.00137257 4.42732e-07 0.0102393
0.00104144 7.76228e-07 0.0209669
0.00103528 0.0101692 -0.0212344
0.00135532 0.0103416 -0.0103427
0.00137257 0.0102393 5.21234e-07
0.00135533 0.0103416 0.0103416
0.00103531 0.0101691 0.021235
0.000702075 0.0219876 -0.0219867
0.00103527 0.021235 -0.0101708
0.00104145 0.0209669 7.78655e-07
0.00103531 0.021235 0.0101691
0.000702103 0.0219876 0.0219876
0.0130244 -0.0234391 -0.0234392
0.0131314 -0.0227127 -0.0100556
0.0129215 -0.0224343 -3.33408e-07
0.0131314 -0.0227127 0.0100561
0.0130244 -0.0234394 0.0234391
0.0131314 -0.0100557 -0.0227127
0.0133314 -0.0102544 -0.0102544
0.0131343 -0.0101443 -5.47716e-07
0.0133315 -0.0102545 0.0102541
0.0131314 -0.0100552 0.0227129
0.0129215 -2.13982e-07 -0.0224343
0.0131343 -5.5915e-07 -0.0101443
0.0129421 9.97482e-07 9.91177e-07
0.0131343 -6.51512e-07 0.0101434
0.0129215 -4.31406e-07 0.0224351
0.0131314 0.0100561 -0.0227127
0.0133315 0.0102541 -0.0102545
0.0131343 0.0101434 -6.49039e-07
0.0133315 0.0102544 0.0102544
0.0131314 0.0100561 0.0227128
0.0130244 0.0234391 -0.0234394
0.0131314 0.0227129 -0.0100552
0.0129215 0.0224351 -4.20238e-07
0.0131314 0.0227128 0.0100561
0.0130244 0.0234391 0.0234391
-0.0130226 -0.0234392 -0.0234392
-0.0131307 -0.0227125 -0.0100556
-0.012922 -0.0224344 -3.09444e-07
-0.0131307 -0.0227126 0.0100561
-0.0130226 -0.0234393 0.0234392
-0.0131307 -0.0100557 -0.0227125
-0.0133319 -0.0102546 -0.0102546
-0.0131328 -0.0101441 -5.64666e-07
-0.0133319 -0.0102546 0.0102544
-0.0131307 -0.0100555 0.0227128
-0.0129221 -3.21521e-07 -0.0224344
-0.0131328 -5.64931e-07 -0.0101441
-0.0129429 9.05608e-07 9.06211e-07
-0.0131329 -5.69105e-07 0.0101433
-0.012922 -3.16141e-07 0.0224352
-0.0131307 0.0100561 -0.0227125
-0.0133319 0.0102544 -0.0102547
-0.0131328 0.0101433 -7.52448e-07
-0.0133319 0.0102544 0.0102546
-0.0131307 0.0100561 0.0227126
-0.0130226 0.0234392 -0.0234393
-0.0131307 0.0227127 -0.0100556
-0.012922 0.0224352 -3.24342e-07
-0.0131307 0.0227128 0.0100561
-0.0130227 0.0234392 0.0234392
-0.000705746 -0.0219867 -0.0219867
-0.00103953 -0.0212345 -0.010171
-0.00104483 -0.0209666 7.74123e-07
-0.00103949 -0.0212345 0.0101693
-0.000705751 -0.0219867 0.0219876
-0.00103947 -0.010171 -0.0212345
-0.00136033 -0.0103424 -0.0103424
-0.00136995 -0.0102395 3.63479e-07
-0.00136029 -0.0103424 0.0103415
-0.00103954 -0.010171 0.021235
-0.00104482 7.64157e-07 -0.0209666
-0.0013699 3.65896e-07 -0.0102395
-0.00139286 2.58582e-07 2.69878e-07
-0.00136986 3.65158e-07 0.0102392
-0.00104479 7.75387e-07 0.0209668
-0.00103949 0.0101693 -0.0212344
-0.00136038 0.0103415 -0.0103426
-0.0013699 0.0102392 4.44117e-07
-0.00136033 0.0103415 0.0103415
-0.0010395 0.0101693 0.021235
-0.000705746 0.0219876 -0.0219867
-0.00103954 0.021235 -0.010171
-0.00104481 0.0209668 6.67877e-07
-0.0010395 0.021235 0.0101694
-0.000705737 0.0219876 0.0219876
0.000706205 -0.0219868 -0.0219868
0.00104254 -0.0212343 -0.0101706
0.0010466 -0.0209666 7.77427e-07
0.00104244 -0.0212343 0.0101689
0.000706202 -0.0219868 0.0219876
0.00104254 -0.0101704 -0.0212343
0.0013597 -0.0103425 -0.0103426
0.00137304 -0.0102395 2.80793e-07
0.00135968 -0.0103426 0.0103418
0.00104243 -0.0101705 0.0212347
0.0010466 5.69793e-07 -0.0209666
0.00137304 2.67109e-07 -0.0102395
0.00138841 -6.06174e-08 -5.92484e-08
0.00137292 2.6712e-07 0.0102397
0.00104658 6.8915e-07 0.0209666
0.00104244 0.0101691 -0.0212343
0.00135969 0.0103419 -0.0103426
0.00137304 0.0102397 3.51459e-07
0.00135967 0.0103418 0.0103417
0.00104234 0.010169 0.0212348
0.000706206 0.0219876 -0.0219868
0.00104256 0.0212347 -0.0101705
0.00104659 0.0209666 6.67718e-07
0.00104233 0.0212348 0.0101691
0.000706191 0.0219876 0.0219876
0.0130234 -0.023439 -0.023439
0.0131278 -0.0227127 -0.0100554
0.0129181 -0.0224343 -3.22133e-07
0.0131278 -0.0227127 0.0100561
0.0130235 -0.0234391 0.0234389
0.0131278 -0.0100554 -0.0227127
0.0133284 -0.0102546 -0.0102545
0.013138 -0.0101443 -6.59335e-07
0.0133285 -0.0102546 0.0102542
0.0131278 -0.0100555 0.0227129
0.0129181 -3.25827e-07 -0.0224343
0.013138 -6.61332e-07 -0.0101443
0.0129378 9.85789e-07 9.86015e-07
0.013138 -8.34908e-07 0.0101436
0.0129182 -2.3392e-07 0.0224351
0.0131278 0.0100561 -0.0227127
0.0133285 0.0102542 -0.0102545
0.013138 0.0101436 -8.49165e-07
0.0133286 0.0102545 0.0102545
0.0131278 0.010056 0.0227128
0.0130235 0.0234389 -0.023439
0.0131278 0.0227129 -0.0100555
0.0129182 0.0224351 -2.15449e-07
0.0131278 0.0227128 0.010056
0.0130236 0.023439 0.023439
SCALARS mass float 1
LOOKUP_TABLE default
1
1
1
1
1
1
1
1
1
1
1
1
1
1
1
1
1
1
1
1
1
1
1
1
1
1
1
1
1
1
1
1
1
1
1
1
1
1
1
1
1
1
1
1
1
1
1
1
1
1
1
1
1
1
1
1
1
1
1
1
1
1
1
1
1
1
1
1
1
1
1
1
1
1
1
1
1
1
1
1
1
1
1
1
1
1
1
1
1
1
1
1
1
1
1
1
1
1
1
1
1
1
1
1
1
1
1
1
1
1
1
1
1
1
1
1
1
1
1
1
1
1
1
1
1
1
1
1
1
1
1
1
1
1
1
1
1
1
1
1
1
1
1
1
1
1
1
1
1
1
1
1
1
1
1
1
1
1
1
1
1
1
1
1
1
1
1
1
1
1
1
1
1
1
1
1
1
1
1
1
1
1
1
1
1
1
1
1
1
1
1
1
1
1
1
1
1
1
1
1
