# vtk DataFile Version 3.0
Molecular Dynamics Particle Data
ASCII
DATASET POLYDATA
POINTS 200 float
0.393687 0.39115 0.39115
0.388988 0.38644 0.547726
0.388063 0.385472 0.7
0.388988 0.38644 0.852274
0.393687 0.39115 1.00885
0.388988 0.547726 0.38644
0.383492 0.545826 0.545826
0.382425 0.545348 0.7
0.383492 0.545826 0.854174
0.388988 0.547726 1.01356
0.388063 0.7 0.385472
0.382425 0.7 0.545348
0.38132 0.7 0.7
0.382425 0.7 0.854653
0.388063 0.7 1.01453
0.388988 0.852274 0.38644
0.383492 0.854174 0.545826
0.382425 0.854653 0.7
0.383492 0.854174 0.854174
0.388988 0.852274 1.01356
0.393687 1.00885 0.39115
0.388988 1.01356 0.547726
0.388063 1.01453 0.7
0.388988 1.01356 0.852274
0.393687 1.00885 1.00885
0.564316 0.386797 0.386797
0.562951 0.381341 0.546001
0.56263 0.380241 0.7
0.562951 0.381341 0.853999
0.564316 0.386797 1.0132
0.562951 0.546001 0.381341
0.56142 0.543894 0.543894
0.561051 0.543359 0.7
0.56142 0.543894 0.856106
0.562951 0.546001 1.01866
0.56263 0.7 0.380241
0.561051 0.7 0.543359
0.560673 0.7 0.7
0.561051 0.7 0.856641
0.56263 0.7 1.01976
0.562951 0.853999 0.381341
0.56142 0.856106 0.543894
0.561051 0.856641 0.7
0.56142 0.856106 0.856106
0.562951 0.853999 1.01866
0.564316 1.0132 0.386797
0.562951 1.01866 0.546001
0.56263 1.01976 0.7
0.562951 1.01866 0.853999
0.564316 1.0132 1.0132
0.735685 0.386797 0.386797
0.737049 0.381341 0.546001
0.73737 0.380241 0.7
0.737049 0.381341 0.853999
0.735685 0.386797 1.0132
0.737049 0.546001 0.381341
0.738579 0.543894 0.543894
0.738949 0.543359 0.7
0.738579 0.543894 0.856106
0.737049 0.546001 1.01866
0.73737 0.7 0.380241
0.738949 0.7 0.543359
0.739329 0.7 0.7
0.738949 0.7 0.856641
0.73737 0.7 1.01976
0.737049 0.853999 0.381341
0.738579 0.856106 0.543894
0.738949 0.856641 0.7
0.738579 0.856106 0.856106
0.737049 0.853999 1.01866
0.735685 1.0132 0.386797
0.737049 1.01866 0.546001
0.73737 1.01976 0.7
0.737049 1.01866 0.853999
0.735685 1.0132 1.0132
0.906313 0.39115 0.39115
0.911011 0.38644 0.547726
0.911937 0.385472 0.7
0.911011 0.38644 0.852274
0.906313 0.39115 1.00885
0.911011 0.547726 0.38644
0.916508 0.545826 0.545826
0.917575 0.545348 0.7
0.916508 0.545826 0.854174
0.911011 0.547726 1.01356
0.911937 0.7 0.385472
0.917575 0.7 0.545348
0.918681 0.7 0.7
0.917575 0.7 0.854653
0.911937 0.7 1.01453
0.911011 0.852274 0.38644
0.916508 0.854174 0.545826
0.917575 0.854653 0.7
0.916508 0.854174 0.854174
0.911011 0.852274 1.01356
0.906313 1.00885 0.39115
0.911011 1.01356 0.547726
0.911937 1.01453 0.7
0.911011 1.01356 0.852274
0.906313 1.00885 1.00885
1.89369 0.391149 0.39115
1.88899 0.38644 0.547726
1.88806 0.385472 0.7
1.88899 0.38644 0.852274
1.89369 0.39115 1.00885
1.88899 0.547726 0.38644
1.88349 0.545826 0.545826
1.88243 0.545348 0.7
1.88349 0.545826 0.854174
1.88899 0.547726 1.01356
1.88806 0.7 0.385472
1.88243 0.7 0.545348
1.88132 0.7 0.7
1.88243 0.7 0.854653
1.88806 0.7 1.01453
1.88899 0.852274 0.38644
1.88349 0.854174 0.545826
1.88243 0.854653 0.7
1.88349 0.854174 0.854174
1.88899 0.852274 1.01356
1.89369 1.00885 0.39115
1.88899 1.01356 0.547726
1.88806 1.01453 0.7
1.88899 1.01356 0.852274
1.89369 1.00885 1.00885
2.06432 0.386797 0.386797
2.06294 0.381341 0.546001
2.06262 0.380241 0.7
2.06294 0.381341 0.853999
2.06432 0.386797 1.0132
2.06294 0.546001 0.381341
2.06142 0.543894 0.543894
2.06105 0.543359 0.7
2.06142 0.543894 0.856106
2.06294 0.546001 1.01866
2.06262 0.7 0.38024
2.06105 0.7 0.543359
2.06067 0.7 0.7
2.06105 0.7 0.856641
2.06262 0.7 1.01976
2.06294 0.853999 0.38134
2.06142 0.856106 0.543894
2.06105 0.856641 0.7
2.06142 0.856106 0.856106
2.06294 0.853999 1.01866
2.06432 1.0132 0.386797
2.06294 1.01866 0.546001
2.06262 1.01976 0.7
2.06294 1.01866 0.853999
2.06432 1.0132 1.0132
2.23569 0.386797 0.386797
2.23705 0.381341 0.546001
2.23737 0.380241 0.7
2.23705 0.381341 0.853999
2.23569 0.386797 1.0132
2.23705 0.546001 0.381341
2.23858 0.543894 0.543894
2.23895 0.543359 0.7
2.23858 0.543894 0.856106
2.23705 0.546001 1.01866
2.23737 0.7 0.380241
2.23895 0.7 0.543359
2.23933 0.7 0.7
2.23895 0.7 0.856641
2.23737 0.7 1.01976
2.23705 0.853999 0.381341
2.23858 0.856106 0.543894
2.23895 0.856641 0.7
2.23858 0.856106 0.856106
2.23705 0.853999 1.01866
2.23569 1.0132 0.386797
2.23705 1.01866 0.546001
2.23737 1.01976 0.7
2.23705 1.01866 0.853999
2.23569 1.0132 1.0132
2.40631 0.39115 0.39115
2.41101 0.386439 0.547726
2.41194 0.385472 0.7
2.41101 0.386439 0.852274
2.40631 0.39115 1.00885
2.41101 0.547726 0.386439
2.41651 0.545826 0.545826
2.41758 0.545347 0.7
2.41651 0.545826 0.854174
2.41101 0.547726 1.01356
2.41194 0.7 0.385472
2.41758 0.7 0.545347
2.41867 0.7 0.7
2.41758 0.7 0.854653
2.41194 0.7 1.01453
2.41101 0.852274 0.386439
2.41651 0.854174 0.545826
2.41758 0.854653 0.7
2.41651 0.854174 0.854174
2.41101 0.852274 1.01356
2.40631 1.00885 0.39115
2.41101 1.01356 0.547726
2.41194 1.01453 0.7
2.41101 1.01356 0.852274
2.40631 1.00885 1.00885
VERTICES 200 400
1 0
1 1
1 2
1 3
1 4
1 5
1 6
1 7
1 8
1 9
1 10
1 11
1 12
1 13
1 14
1 15
1 16
1 17
1 18
1 19
1 20
1 21
1 22
1 23
1 24
1 25
1 26
1 27
1 28
1 29
1 30
1 31
1 32
1 33
1 34
1 35
1 36
1 37
1 38
1 39
1 40
1 41
1 42
1 43
1 44
1 45
1 46
1 47
1 48
1 49
1 50
1 51
1 52
1 53
1 54
1 55
1 56
1 57
1 58
1 59
1 60
1 61
1 62
1 63
1 64
1 65
1 66
1 67
1 68
1 69
1 70
1 71
1 72
1 73
1 74
1 75
1 76
1 77
1 78
1 79
1 80
1 81
1 82
1 83
1 84
1 85
1 86
1 87
1 88
1 89
1 90
1 91
1 92
1 93
1 94
1 95
1 96
1 97
1 98
1 99
1 100
1 101
1 102
1 103
1 104
1 105
1 106
1 107
1 108
1 109
1 110
1 111
1 112
1 113
1 114
1 115
1 116
1 117
1 118
1 119
1 120
1 121
1 122
1 123
1 124
1 125
1 126
1 127
1 128
1 129
1 130
1 131
1 132
1 133
1 134
1 135
1 136
1 137
1 138
1 139
1 140
1 141
1 142
1 143
1 144
1 145
1 146
1 147
1 148
1 149
1 150
1 151
1 152
1 153
1 154
1 155
1 156
1 157
1 158
1 159
1 160
1 161
1 162
1 163
1 164
1 165
1 166
1 167
1 168
1 169
1 170
1 171
1 172
1 173
1 174
1 175
1 176
1 177
1 178
1 179
1 180
1 181
1 182
1 183
1 184
1 185
1 186
1 187
1 188
1 189
1 190
1 191
1 192
1 193
1 194
1 195
1 196
1 197
1 198
1 199
POINT_DATA 200
VECTORS velocity float
-0.149686 -0.157404 -0.157404
-0.155903 -0.163442 -0.0896653
-0.15731 -0.164924 2.05314e-06
-0.155903 -0.163442 0.0896647
-0.149686 -0.157404 0.157403
-0.155903 -0.0896654 -0.163442
-0.163234 -0.0923781 -0.0923781
-0.164859 -0.0930926 -1.22373e-06
-0.163234 -0.0923781 0.0923779
-0.155903 -0.0896653 0.163442
-0.15731 2.0599e-06 -0.164924
-0.164859 -1.22491e-06 -0.0930926
-0.166547 1.29391e-06 1.29226e-06
-0.164859 -1.10038e-06 0.0930936
-0.15731 2.07367e-06 0.164925
-0.155903 0.0896647 -0.163442
-0.163234 0.0923779 -0.0923781
-0.164859 0.0930936 -1.10183e-06
-0.163234 0.0923777 0.0923777
-0.155903 0.0896645 0.163442
-0.149686 0.157403 -0.157404
-0.155903 0.163442 -0.0896653
-0.15731 0.164925 2.07005e-06
-0.155903 0.163442 0.0896645
-0.149686 0.157403 0.157403
-0.055663 -0.162591 -0.162592
-0.0576219 -0.169615 -0.0920353
-0.0581094 -0.171298 1.42835e-06
-0.0576219 -0.169616 0.0920351
-0.055663 -0.162592 0.162591
-0.057622 -0.0920353 -0.169615
-0.059804 -0.0950013 -0.0950013
-0.0603644 -0.0958021 -2.35291e-06
-0.0598038 -0.0950012 0.0950029
-0.057622 -0.0920352 0.169615
-0.0581094 1.42346e-06 -0.171298
-0.0603644 -2.35295e-06 -0.095802
-0.0609428 -1.3641e-07 -1.35667e-07
-0.0603643 -2.47929e-06 0.0958023
-0.0581093 1.42607e-06 0.171298
-0.0576219 0.0920351 -0.169616
-0.0598038 0.0950029 -0.0950012
-0.0603643 0.0958023 -2.47923e-06
-0.0598038 0.0950028 0.0950028
-0.0576218 0.092035 0.169615
-0.0556629 0.162591 -0.162592
-0.0576219 0.169615 -0.0920352
-0.0581092 0.171298 1.42531e-06
-0.0576218 0.169615 0.092035
-0.0556629 0.162591 0.162591
0.0556643 -0.162592 -0.162592
0.0576213 -0.169615 -0.0920354
0.0581093 -0.171298 1.45519e-06
0.0576213 -0.169616 0.0920351
0.0556643 -0.162591 0.162591
0.0576213 -0.0920354 -0.169615
0.0598024 -0.0950014 -0.0950014
0.0603646 -0.0958021 -2.27372e-06
0.0598023 -0.0950011 0.0950028
0.0576214 -0.0920353 0.169615
0.0581093 1.4568e-06 -0.171298
0.0603646 -2.32235e-06 -0.0958021
0.0609452 -2.32576e-07 -2.3106e-07
0.0603645 -2.51335e-06 0.0958024
0.0581091 1.45816e-06 0.171298
0.0576213 0.0920351 -0.169616
0.0598023 0.0950029 -0.0950012
0.0603645 0.0958024 -2.42911e-06
0.0598023 0.0950028 0.0950028
0.0576213 0.0920351 0.169615
0.0556643 0.162591 -0.162591
0.0576213 0.169615 -0.0920353
0.0581091 0.171298 1.45535e-06
0.0576213 0.169615 0.0920351
0.0556642 0.162591 0.162591
0.149686 -0.157404 -0.157404
0.155903 -0.163442 -0.0896653
0.15731 -0.164924 2.05272e-06
0.155903 -0.163442 0.0896645
0.149686 -0.157404 0.157403
0.155903 -0.0896653 -0.163442
0.163233 -0.0923781 -0.0923781
0.164859 -0.0930926 -1.23404e-06
0.163233 -0.0923781 0.0923779
0.155903 -0.0896652 0.163442
0.15731 2.07644e-06 -0.164924
0.164859 -1.23415e-06 -0.0930926
0.166549 1.42805e-06 1.42801e-06
0.164859 -1.09922e-06 0.0930934
0.15731 1.88032e-06 0.164925
0.155903 0.0896645 -0.163442
0.163233 0.0923779 -0.0923781
0.164859 0.0930934 -1.10065e-06
0.163233 0.0923777 0.0923777
0.155903 0.0896645 0.163442
0.149686 0.157403 -0.157404
0.155903 0.163442 -0.0896652
0.15731 0.164925 1.87341e-06
0.155903 0.163442 0.0896645
0.149686 0.157403 0.157403
-0.149686 -0.157404 -0.157404
-0.155902 -0.163442 -0.0896654
-0.157311 -0.164924 2.05519e-06
-0.155902 -0.163442 0.0896647
-0.149686 -0.157404 0.157403
-0.155902 -0.0896654 -0.163442
-0.163237 -0.0923782 -0.0923782
-0.164856 -0.0930924 -1.24073e-06
-0.163237 -0.0923782 0.092378
-0.155902 -0.0896653 0.163442
-0.157311 2.05818e-06 -0.164924
-0.164856 -1.24034e-06 -0.0930924
-0.166553 1.29633e-06 1.28727e-06
-0.164856 -1.23718e-06 0.0930934
-0.157311 2.05854e-06 0.164925
-0.155902 0.0896647 -0.163442
-0.163237 0.092378 -0.0923782
-0.164856 0.0930934 -1.1189e-06
-0.163237 0.0923779 0.0923778
-0.155902 0.0896647 0.163442
-0.149686 0.157403 -0.157404
-0.155902 0.163442 -0.0896653
-0.157311 0.164925 2.05779e-06
-0.155902 0.163442 0.0896647
-0.149686 0.157403 0.157403
-0.0556656 -0.162592 -0.162592
-0.057628 -0.169615 -0.0920354
-0.0581146 -0.171298 1.45464e-06
-0.0576279 -0.169616 0.0920352
-0.0556656 -0.162592 0.162591
-0.0576279 -0.0920354 -0.169615
-0.0598029 -0.095001 -0.095001
-0.0603634 -0.0958022 -2.59884e-06
-0.0598029 -0.0950009 0.0950027
-0.0576279 -0.0920354 0.169615
-0.0581146 1.45554e-06 -0.171298
-0.0603633 -2.59397e-06 -0.0958022
-0.0609403 -1.73683e-07 -1.70958e-07
-0.0603635 -2.55541e-06 0.0958024
-0.0581146 1.45344e-06 0.171298
-0.0576279 0.0920352 -0.169616
-0.0598029 0.0950027 -0.0950008
-0.0603634 0.0958024 -2.64649e-06
-0.0598029 0.0950025 0.0950025
-0.0576279 0.0920352 0.169615
-0.0556656 0.162591 -0.162592
-0.0576279 0.169615 -0.0920354
-0.0581146 0.171298 1.42402e-06
-0.0576279 0.169615 0.092035
-0.0556656 0.162591 0.162591
0.0556687 -0.162592 -0.162592
0.0576196 -0.169615 -0.0920357
0.0581054 -0.171297 1.67546e-06
0.0576195 -0.169615 0.0920353
0.0556687 -0.162592 0.162591
0.0576196 -0.0920357 -0.169615
0.0597991 -0.0950013 -0.0950012
0.0603717 -0.0958023 -2.20141e-06
0.0597991 -0.0950013 0.0950026
0.0576195 -0.0920356 0.169615
0.0581054 1.63186e-06 -0.171297
0.0603717 -2.20277e-06 -0.0958023
0.0609373 -9.17479e-08 -9.05429e-08
0.0603716 -2.20091e-06 0.0958024
0.0581053 1.64506e-06 0.171298
0.0576195 0.0920354 -0.169615
0.0597991 0.0950026 -0.0950013
0.0603718 0.0958024 -2.19473e-06
0.0597991 0.0950026 0.0950026
0.0576194 0.0920353 0.169615
0.0556687 0.162591 -0.162592
0.0576196 0.169615 -0.0920357
0.0581053 0.171298 1.64372e-06
0.0576194 0.169615 0.0920354
0.0556687 0.162591 0.162591
0.149688 -0.157404 -0.157404
0.155907 -0.163442 -0.0896653
0.157316 -0.164924 2.05476e-06
0.155907 -0.163442 0.0896646
0.149688 -0.157404 0.157403
0.155907 -0.0896653 -0.163442
0.163234 -0.0923786 -0.0923786
0.164865 -0.0930929 -1.29714e-06
0.163234 -0.0923786 0.0923781
0.155907 -0.0896653 0.163442
0.157316 2.06067e-06 -0.164924
0.164865 -1.29609e-06 -0.0930929
0.166539 1.51239e-06 1.51147e-06
0.164865 -1.14284e-06 0.0930936
0.157316 2.07929e-06 0.164925
0.155907 0.0896647 -0.163442
0.163234 0.0923781 -0.0923786
0.164865 0.0930936 -1.14635e-06
0.163234 0.0923779 0.0923779
0.155907 0.0896644 0.163442
0.149688 0.157403 -0.157404
0.155907 0.163442 -0.0896653
0.157316 0.164925 2.0712e-06
0.155907 0.163442 0.0896644
0.149688 0.157403 0.157403
VECTORS force float
-0.00818599 -0.0164245 -0.0164245
-0.00830203 -0.0157607 -0.00421814
-0.00805928 -0.0154239 -2.41855e-07
-0.00830204 -0.0157607 0.00421831
-0.00818601 -0.0164245 0.0164246
-0.00830205 -0.00421813 -0.0157607
-0.0084793 -0.00453767 -0.00453767
-0.00824246 -0.00448115 -2.57324e-07
-0.00847929 -0.00453768 0.00453737
-0.00830203 -0.00421814 0.0157609
-0.00805929 -2.37291e-07 -0.0154239
-0.00824246 -2.54993e-07 -0.00448114
-0.00801121 6.309e-07 6.30717e-07
-0.00824249 -3.74727e-07 0.00448053
-0.00805928 -1.84004e-07 0.0154244
-0.00830202 0.00421831 -0.0157607
-0.00847929 0.00453737 -0.00453768
-0.00824248 0.00448053 -3.74392e-07
-0.0084793 0.00453753 0.00453753
-0.00830202 0.0042183 0.0157608
-0.00818601 0.0164246 -0.0164245
-0.00830203 0.0157609 -0.00421814
-0.00805928 0.0154244 -1.89854e-07
-0.00830202 0.0157608 0.0042183
-0.00818604 0.0164246 0.0164246
0.000306744 -0.0152017 -0.0152017
7.36221e-06 -0.0145197 -0.00446777
-1.23077e-06 -0.0141945 3.97925e-07
7.3459e-06 -0.0145197 0.00446665
0.00030675 -0.0152017 0.0152024
7.37832e-06 -0.00446775 -0.0145197
-0.000273944 -0.0047686 -0.00476863
-0.000290037 -0.00471752 4.50772e-07
-0.000273961 -0.00476871 0.00476778
7.38422e-06 -0.00446777 0.0145202
-1.2307e-06 3.97615e-07 -0.0141945
-0.000290038 4.49927e-07 -0.00471751
-0.000309121 1.63712e-07 1.65349e-07
-0.000290077 5.51182e-07 0.00471729
-1.24835e-06 3.95123e-07 0.0141945
7.34097e-06 0.00446666 -0.0145197
-0.000273967 0.00476778 -0.00476873
-0.000290072 0.00471729 5.5243e-07
-0.000273977 0.0047677 0.0047677
7.32702e-06 0.00446666 0.0145202
0.000306744 0.0152024 -0.0152017
7.34697e-06 0.0145202 -0.00446777
-1.24095e-06 0.0141945 3.96373e-07
7.32773e-06 0.0145202 0.00446666
0.000306734 0.0152023 0.0152023
-0.000306896 -0.0152017 -0.0152017
-7.44546e-06 -0.0145197 -0.00446777
1.20972e-06 -0.0141945 4.52705e-07
-7.43391e-06 -0.0145197 0.00446655
-0.000306949 -0.0152017 0.0152024
-7.46516e-06 -0.00446776 -0.0145197
0.000273748 -0.00476862 -0.00476863
0.000290116 -0.00471753 4.9556e-07
0.000273759 -0.00476865 0.00476771
-7.48091e-06 -0.00446774 0.0145202
1.20638e-06 4.57868e-07 -0.0141945
0.00029012 4.98855e-07 -0.00471753
0.000309331 1.72295e-07 1.7403e-07
0.000290128 4.98212e-07 0.00471729
1.21546e-06 4.55209e-07 0.0141945
-7.41421e-06 0.00446655 -0.0145197
0.000273768 0.0047677 -0.00476873
0.00029013 0.00471729 5.52539e-07
0.000273775 0.00476769 0.0047677
-7.38865e-06 0.00446654 0.0145202
-0.000306944 0.0152024 -0.0152017
-7.42855e-06 0.0145202 -0.00446773
1.22959e-06 0.0141945 4.52331e-07
-7.3901e-06 0.0145202 0.00446656
-0.000306931 0.0152024 0.0152024
0.00818623 -0.0164244 -0.0164245
0.00830182 -0.0157607 -0.00421814
0.00805926 -0.0154239 -2.39901e-07
0.00830184 -0.0157607 0.00421831
0.00818626 -0.0164246 0.0164246
0.00830182 -0.00421818 -0.0157607
0.00847874 -0.00453761 -0.0045376
0.00824238 -0.00448117 -3.15465e-07
0.00847875 -0.00453769 0.00453738
0.00830187 -0.00421788 0.0157609
0.00805926 -1.81293e-07 -0.0154239
0.00824237 -3.06132e-07 -0.00448117
0.00801156 6.83692e-07 6.75496e-07
0.00824238 -3.69516e-07 0.00448049
0.00805924 -3.07826e-07 0.0154245
0.00830184 0.00421831 -0.0157607
0.00847875 0.00453737 -0.00453769
0.00824238 0.00448049 -3.75515e-07
0.00847876 0.00453754 0.00453755
0.00830184 0.00421831 0.0157608
0.00818626 0.0164246 -0.0164246
0.00830183 0.0157609 -0.00421789
0.00805923 0.0154245 -3.07927e-07
0.00830184 0.0157609 0.00421831
0.00818627 0.0164246 0.0164246
-0.00818486 -0.0164246 -0.0164246
-0.00830405 -0.0157607 -0.00421822
-0.00806197 -0.015424 -2.50849e-07
-0.00830408 -0.0157606 0.00421837
-0.00818489 -0.0164247 0.0164248
-0.00830406 -0.00421824 -0.0157607
-0.00848111 -0.00453754 -0.00453755
-0.00824099 -0.00448093 -4.25984e-07
-0.0084811 -0.00453771 0.0045375
-0.00830407 -0.00421821 0.0157608
-0.00806199 -2.51197e-07 -0.015424
-0.00824096 -4.21694e-07 -0.00448091
-0.0080123 6.22751e-07 6.17825e-07
-0.00824105 -3.14975e-07 0.00448034
-0.00806197 -2.48959e-07 0.0154245
-0.00830407 0.00421837 -0.0157607
-0.00848115 0.0045375 -0.00453754
-0.00824096 0.00448033 -5.44083e-07
-0.00848116 0.0045375 0.00453767
-0.00830407 0.00421836 0.0157607
-0.00818489 0.0164248 -0.0164247
-0.00830406 0.0157607 -0.0042182
-0.00806198 0.0154245 -2.53324e-07
-0.00830407 0.0157608 0.00421837
-0.00818491 0.0164248 0.0164248
0.000307138 -0.0152015 -0.0152015
1.2327e-05 -0.0145197 -0.00446788
3.67456e-06 -0.0141945 4.45006e-07
1.23537e-05 -0.0145197 0.00446674
0.000307181 -0.0152015 0.0152022
1.23647e-05 -0.00446788 -0.0145197
-0.000272025 -0.00476867 -0.00476867
-0.000287377 -0.0047176 4.02724e-07
-0.000272001 -0.00476868 0.00476788
1.23176e-05 -0.00446789 0.0145201
3.67506e-06 4.51887e-07 -0.0141945
-0.000287346 4.57589e-07 -0.00471763
-0.000309738 2.56067e-07 2.58106e-07
-0.000287331 4.02478e-07 0.00471725
3.69529e-06 4.48427e-07 0.0141946
1.23541e-05 0.00446674 -0.0145197
-0.000272051 0.0047678 -0.00476879
-0.000287344 0.00471724 4.52273e-07
-0.000272029 0.00476786 0.00476787
1.23401e-05 0.00446674 0.0145202
0.00030718 0.0152022 -0.0152015
1.23156e-05 0.0145202 -0.00446789
3.67709e-06 0.0141946 3.95678e-07
1.2343e-05 0.0145202 0.00446675
0.000307182 0.0152022 0.0152022
-0.000307665 -0.0152017 -0.0152016
-1.06584e-05 -0.0145196 -0.0044675
-2.25947e-06 -0.0141945 4.41869e-07
-1.07147e-05 -0.0145196 0.0044664
-0.000307669 -0.0152017 0.0152023
-1.06581e-05 -0.00446742 -0.0145196
0.000271712 -0.0047687 -0.00476871
0.00028938 -0.00471749 3.44678e-07
0.000271697 -0.00476873 0.00476808
-1.07867e-05 -0.00446745 0.01452
-2.26483e-06 3.37622e-07 -0.0141945
0.000289379 3.44575e-07 -0.00471749
0.000306652 -2.74656e-08 -2.44883e-08
0.00028931 3.42038e-07 0.00471759
-2.27714e-06 3.89291e-07 0.0141945
-1.07924e-05 0.00446649 -0.0145196
0.000271703 0.00476808 -0.00476872
0.000289374 0.00471759 3.97987e-07
0.000271694 0.00476807 0.00476799
-1.08504e-05 0.00446641 0.01452
-0.000307668 0.0152022 -0.0152017
-1.06376e-05 0.01452 -0.00446745
-2.27044e-06 0.0141945 3.84418e-07
-1.08486e-05 0.01452 0.00446648
-0.000307679 0.0152023 0.0152022
0.00818712 -0.0164245 -0.0164245
0.00830218 -0.0157608 -0.00421804
0.00805938 -0.0154239 -2.50657e-07
0.00830218 -0.0157608 0.00421834
0.00818721 -0.0164245 0.0164245
0.00830218 -0.00421803 -0.0157608
0.00847881 -0.0045374 -0.0045374
0.00824437 -0.00448097 -4.84669e-07
0.00847888 -0.00453741 0.00453737
0.00830218 -0.00421809 0.0157609
0.00805941 -2.48394e-07 -0.0154239
0.00824437 -4.86295e-07 -0.00448097
0.00800878 6.2063e-07 6.21856e-07
0.00824439 -5.84319e-07 0.00448045
0.0080595 -1.81595e-07 0.0154244
0.00830218 0.00421833 -0.0157608
0.00847886 0.00453736 -0.00453741
0.00824438 0.00448045 -5.83228e-07
0.00847894 0.00453752 0.00453753
0.0083022 0.00421832 0.0157608
0.00818718 0.0164245 -0.0164244
0.00830217 0.0157609 -0.0042181
0.00805944 0.0154244 -1.79885e-07
0.00830219 0.0157608 0.00421832
0.00818729 0.0164245 0.0164245
SCALARS mass float 1
LOOKUP_TABLE default
1
1
1
1
1
1
1
1
1
1
1
1
1
1
1
1
1
1
1
1
1
1
1
1
1
1
1
1
1
1
1
1
1
1
1
1
1
1
1
1
1
1
1
1
1
1
1
1
1
1
1
1
1
1
1
1
1
1
1
1
1
1
1
1
1
1
1
1
1
1
1
1
1
1
1
1
1
1
1
1
1
1
1
1
1
1
1
1
1
1
1
1
1
1
1
1
1
1
1
1
1
1
1
1
1
1
1
1
1
1
1
1
1
1
1
1
1
1
1
1
1
1
1
1
1
1
1
1
1
1
1
1
1
1
1
1
1
1
1
1
1
1
1
1
1
1
1
1
1
1
1
1
1
1
1
1
1
1
1
1
1
1
1
1
1
1
1
1
1
1
1
1
1
1
1
1
1
1
1
1
1
1
1
1
1
1
1
1
1
1
1
1
1
1
1
1
1
1
1
1
