# vtk DataFile Version 3.0
Molecular Dynamics Particle Data
ASCII
DATASET POLYDATA
POINTS 200 float
0.478405 0.478375 0.478375
0.477366 0.477332 0.595162
0.477253 0.477217 0.7
0.477366 0.477332 0.804839
0.478405 0.478375 0.921625
0.477366 0.595162 0.477332
0.476164 0.594869 0.594869
0.476032 0.594821 0.7
0.476164 0.594869 0.80513
0.477366 0.595162 0.922668
0.477253 0.7 0.477217
0.476032 0.7 0.594821
0.475895 0.7 0.7
0.476032 0.7 0.805179
0.477253 0.7 0.922783
0.477366 0.804839 0.477332
0.476164 0.80513 0.594869
0.476032 0.805179 0.7
0.476164 0.80513 0.80513
0.477366 0.804839 0.922668
0.478405 0.921625 0.478375
0.477366 0.922668 0.595162
0.477253 0.922783 0.7
0.477366 0.922668 0.804839
0.478405 0.921625 0.921625
0.595788 0.477347 0.477347
0.595549 0.476144 0.594877
0.595511 0.47601 0.7
0.595549 0.476144 0.805123
0.595788 0.477347 0.922653
0.595549 0.594877 0.476144
0.595276 0.594543 0.594543
0.595232 0.594487 0.7
0.595276 0.594543 0.805456
0.595549 0.594877 0.923856
0.595511 0.7 0.47601
0.595232 0.7 0.594487
0.595186 0.7 0.7
0.595232 0.7 0.805513
0.595511 0.7 0.92399
0.595549 0.805123 0.476144
0.595276 0.805456 0.594543
0.595232 0.805513 0.7
0.595276 0.805456 0.805456
0.595549 0.805123 0.923856
0.595788 0.922653 0.477347
0.595549 0.923856 0.594877
0.595511 0.92399 0.7
0.595549 0.923856 0.805123
0.595788 0.922653 0.922653
0.704212 0.477347 0.477347
0.704451 0.476144 0.594877
0.704489 0.47601 0.7
0.704451 0.476144 0.805123
0.704212 0.477347 0.922653
0.704451 0.594877 0.476144
0.704723 0.594543 0.594543
0.704768 0.594487 0.7
0.704723 0.594543 0.805456
0.704451 0.594877 0.923856
0.704489 0.7 0.47601
0.704768 0.7 0.594487
0.704814 0.7 0.7
0.704768 0.7 0.805513
0.704489 0.7 0.92399
0.704451 0.805123 0.476144
0.704723 0.805456 0.594543
0.704768 0.805513 0.7
0.704723 0.805456 0.805456
0.704451 0.805123 0.923856
0.704212 0.922653 0.477347
0.704451 0.923856 0.594877
0.704489 0.92399 0.7
0.704451 0.923856 0.805123
0.704212 0.922653 0.922653
0.821595 0.478375 0.478375
0.822634 0.477332 0.595162
0.822747 0.477217 0.7
0.822634 0.477332 0.804839
0.821595 0.478375 0.921625
0.822634 0.595162 0.477332
0.823835 0.594869 0.594869
0.823968 0.594821 0.7
0.823835 0.594869 0.80513
0.822634 0.595162 0.922668
0.822747 0.7 0.477217
0.823968 0.7 0.594821
0.824105 0.7 0.7
0.823968 0.7 0.805179
0.822747 0.7 0.922783
0.822634 0.804839 0.477332
0.823835 0.80513 0.594869
0.823968 0.805179 0.7
0.823835 0.80513 0.80513
0.822634 0.804839 0.922668
0.821595 0.921625 0.478375
0.822634 0.922668 0.595162
0.822747 0.922783 0.7
0.822634 0.922668 0.804839
0.821595 0.921625 0.921625
1.97841 0.478375 0.478375
1.97737 0.477332 0.595162
1.97725 0.477217 0.7
1.97737 0.477332 0.804839
1.97841 0.478375 0.921625
1.97737 0.595162 0.477332
1.97616 0.594869 0.594869
1.97603 0.594821 0.7
1.97616 0.594869 0.80513
1.97737 0.595162 0.922668
1.97725 0.7 0.477217
1.97603 0.7 0.594821
1.9759 0.7 0.7
1.97603 0.7 0.805179
1.97725 0.7 0.922783
1.97737 0.804839 0.477332
1.97616 0.80513 0.594869
1.97603 0.805179 0.7
1.97616 0.80513 0.80513
1.97737 0.804839 0.922668
1.97841 0.921625 0.478375
1.97737 0.922668 0.595162
1.97725 0.922783 0.7
1.97737 0.922668 0.804839
1.97841 0.921625 0.921625
2.09579 0.477347 0.477347
2.09555 0.476144 0.594877
2.09551 0.47601 0.7
2.09555 0.476144 0.805123
2.09579 0.477347 0.922653
2.09555 0.594877 0.476144
2.09528 0.594543 0.594543
2.09523 0.594487 0.7
2.09528 0.594543 0.805456
2.09555 0.594877 0.923856
2.09551 0.7 0.47601
2.09523 0.7 0.594487
2.09519 0.7 0.7
2.09523 0.7 0.805513
2.09551 0.7 0.92399
2.09555 0.805123 0.476144
2.09528 0.805456 0.594543
2.09523 0.805513 0.7
2.09528 0.805456 0.805456
2.09555 0.805123 0.923856
2.09579 0.922653 0.477347
2.09555 0.923856 0.594877
2.09551 0.92399 0.7
2.09555 0.923856 0.805123
2.09579 0.922653 0.922653
2.20421 0.477347 0.477347
2.20445 0.476144 0.594877
2.20449 0.47601 0.7
2.20445 0.476144 0.805123
2.20421 0.477347 0.922653
2.20445 0.594877 0.476144
2.20472 0.594543 0.594543
2.20477 0.594487 0.7
2.20472 0.594543 0.805456
2.20445 0.594877 0.923856
2.20449 0.7 0.47601
2.20477 0.7 0.594487
2.20481 0.7 0.7
2.20477 0.7 0.805513
2.20449 0.7 0.92399
2.20445 0.805123 0.476144
2.20472 0.805456 0.594543
2.20477 0.805513 0.7
2.20472 0.805456 0.805456
2.20445 0.805123 0.923856
2.20421 0.922653 0.477347
2.20445 0.923856 0.594877
2.20449 0.92399 0.7
2.20445 0.923856 0.805123
2.20421 0.922653 0.922653
2.3216 0.478375 0.478375
2.32263 0.477332 0.595162
2.32274 0.477217 0.7
2.32263 0.477332 0.804839
2.3216 0.478375 0.921625
2.32263 0.595162 0.477332
2.32384 0.594869 0.594869
2.32397 0.594821 0.7
2.32384 0.594869 0.80513
2.32263 0.595162 0.922668
2.32274 0.7 0.477217
2.32397 0.7 0.594821
2.3241 0.7 0.7
2.32397 0.7 0.805179
2.32274 0.7 0.922783
2.32263 0.804839 0.477332
2.32384 0.80513 0.594869
2.32397 0.805179 0.7
2.32384 0.80513 0.80513
2.32263 0.804839 0.922668
2.3216 0.921625 0.478375
2.32263 0.922668 0.595162
2.32274 0.922783 0.7
2.32263 0.922668 0.804839
2.3216 0.921625 0.921625
VERTICES 200 400
1 0
1 1
1 2
1 3
1 4
1 5
1 6
1 7
1 8
1 9
1 10
1 11
1 12
1 13
1 14
1 15
1 16
1 17
1 18
1 19
1 20
1 21
1 22
1 23
1 24
1 25
1 26
1 27
1 28
1 29
1 30
1 31
1 32
1 33
1 34
1 35
1 36
1 37
1 38
1 39
1 40
1 41
1 42
1 43
1 44
1 45
1 46
1 47
1 48
1 49
1 50
1 51
1 52
1 53
1 54
1 55
1 56
1 57
1 58
1 59
1 60
1 61
1 62
1 63
1 64
1 65
1 66
1 67
1 68
1 69
1 70
1 71
1 72
1 73
1 74
1 75
1 76
1 77
1 78
1 79
1 80
1 81
1 82
1 83
1 84
1 85
1 86
1 87
1 88
1 89
1 90
1 91
1 92
1 93
1 94
1 95
1 96
1 97
1 98
1 99
1 100
1 101
1 102
1 103
1 104
1 105
1 106
1 107
1 108
1 109
1 110
1 111
1 112
1 113
1 114
1 115
1 116
1 117
1 118
1 119
1 120
1 121
1 122
1 123
1 124
1 125
1 126
1 127
1 128
1 129
1 130
1 131
1 132
1 133
1 134
1 135
1 136
1 137
1 138
1 139
1 140
1 141
1 142
1 143
1 144
1 145
1 146
1 147
1 148
1 149
1 150
1 151
1 152
1 153
1 154
1 155
1 156
1 157
1 158
1 159
1 160
1 161
1 162
1 163
1 164
1 165
1 166
1 167
1 168
1 169
1 170
1 171
1 172
1 173
1 174
1 175
1 176
1 177
1 178
1 179
1 180
1 181
1 182
1 183
1 184
1 185
1 186
1 187
1 188
1 189
1 190
1 191
1 192
1 193
1 194
1 195
1 196
1 197
1 198
1 199
POINT_DATA 200
VECTORS velocity float
-0.118856 -0.119372 -0.119372
-0.124402 -0.124968 -0.0466229
-0.125341 -0.125925 1.399e-06
-0.124402 -0.124968 0.0466231
-0.118856 -0.119372 0.119371
-0.124402 -0.0466229 -0.124968
-0.130858 -0.0489645 -0.0489645
-0.131944 -0.0494637 -1.53712e-07
-0.130858 -0.0489645 0.048964
-0.124402 -0.0466229 0.124968
-0.125341 1.40304e-06 -0.125925
-0.131944 -1.53386e-07 -0.0494638
-0.133067 2.17254e-07 2.1506e-07
-0.131944 1.03484e-07 0.0494647
-0.125341 1.40163e-06 0.125925
-0.124402 0.0466231 -0.124968
-0.130858 0.048964 -0.0489645
-0.131944 0.0494647 1.02452e-07
-0.130858 0.0489637 0.0489637
-0.124402 0.046623 0.124968
-0.118856 0.119371 -0.119372
-0.124402 0.124968 -0.0466228
-0.125341 0.125925 1.39673e-06
-0.124402 0.124968 0.046623
-0.118856 0.119371 0.119371
-0.037619 -0.124787 -0.124787
-0.0393466 -0.131269 -0.0488582
-0.0397086 -0.132367 -8.83599e-08
-0.0393466 -0.131269 0.0488598
-0.0376189 -0.124787 0.124785
-0.0393466 -0.0488582 -0.131269
-0.0412898 -0.051492 -0.0514921
-0.0417048 -0.0520613 -1.08598e-06
-0.0412897 -0.0514919 0.0514919
-0.0393466 -0.0488582 0.13127
-0.0397086 -9.04679e-08 -0.132367
-0.0417048 -1.08645e-06 -0.0520612
-0.0421307 2.86931e-07 2.86356e-07
-0.0417048 -1.2467e-06 0.0520609
-0.0397085 -8.94239e-08 0.132368
-0.0393466 0.0488598 -0.131269
-0.0412897 0.0514919 -0.0514919
-0.0417048 0.0520609 -1.24692e-06
-0.0412898 0.0514919 0.0514919
-0.0393466 0.0488598 0.13127
-0.0376189 0.124785 -0.124787
-0.0393466 0.13127 -0.0488582
-0.0397085 0.132368 -8.83084e-08
-0.0393466 0.13127 0.0488598
-0.0376189 0.124785 0.124785
0.03762 -0.124787 -0.124787
0.0393463 -0.131269 -0.0488582
0.0397088 -0.132367 -8.84885e-08
0.0393463 -0.131269 0.0488598
0.03762 -0.124787 0.124785
0.0393463 -0.0488582 -0.131269
0.0412887 -0.0514921 -0.0514921
0.041705 -0.0520612 -1.08374e-06
0.0412887 -0.0514919 0.0514919
0.0393463 -0.0488582 0.13127
0.0397088 -8.92129e-08 -0.132367
0.041705 -1.08463e-06 -0.0520612
0.0421324 2.88095e-07 2.8742e-07
0.041705 -1.2462e-06 0.0520608
0.0397087 -8.99409e-08 0.132368
0.0393463 0.0488598 -0.131269
0.0412887 0.0514919 -0.0514919
0.041705 0.0520609 -1.24664e-06
0.0412887 0.0514919 0.0514919
0.0393463 0.0488598 0.13127
0.03762 0.124785 -0.124787
0.0393463 0.13127 -0.0488582
0.0397086 0.132368 -8.81831e-08
0.0393463 0.13127 0.0488598
0.03762 0.124785 0.124785
0.118856 -0.119372 -0.119372
0.124402 -0.124968 -0.0466229
0.125341 -0.125925 1.39795e-06
0.124402 -0.124968 0.0466231
0.118856 -0.119372 0.119371
0.124402 -0.0466229 -0.124968
0.130858 -0.0489645 -0.0489645
0.131944 -0.0494638 -1.52692e-07
0.130858 -0.0489645 0.048964
0.124402 -0.046623 0.124968
0.125341 1.40296e-06 -0.125925
0.131944 -1.51629e-07 -0.0494638
0.133067 2.18358e-07 2.17232e-07
0.131944 1.03842e-07 0.0494647
0.125341 1.40171e-06 0.125925
0.124402 0.0466231 -0.124968
0.130858 0.048964 -0.0489645
0.131944 0.0494647 1.02591e-07
0.130858 0.0489637 0.0489637
0.124402 0.046623 0.124968
0.118856 0.119371 -0.119372
0.124402 0.124968 -0.046623
0.125341 0.125925 1.39625e-06
0.124402 0.124968 0.046623
0.118856 0.119371 0.119371
-0.118856 -0.119372 -0.119372
-0.124401 -0.124968 -0.0466229
-0.125342 -0.125925 1.39984e-06
-0.124401 -0.124968 0.0466232
-0.118856 -0.119372 0.119371
-0.124401 -0.0466229 -0.124968
-0.130861 -0.0489644 -0.0489644
-0.131943 -0.0494637 -1.54867e-07
-0.130861 -0.0489645 0.048964
-0.124401 -0.0466229 0.124968
-0.125342 1.40332e-06 -0.125925
-0.131943 -1.54003e-07 -0.0494637
-0.13307 2.09522e-07 2.05286e-07
-0.131943 -1.52084e-07 0.0494647
-0.125342 1.39954e-06 0.125925
-0.124401 0.0466232 -0.124968
-0.130861 0.048964 -0.0489645
-0.131943 0.0494647 1.00704e-07
-0.130861 0.048964 0.0489637
-0.124401 0.0466232 0.124968
-0.118856 0.119371 -0.119372
-0.124401 0.124968 -0.0466229
-0.125342 0.125925 1.4028e-06
-0.124401 0.124968 0.0466231
-0.118856 0.119371 0.119371
-0.0376244 -0.124787 -0.124787
-0.0393502 -0.131269 -0.0488581
-0.0397099 -0.132368 -8.65048e-08
-0.0393503 -0.131269 0.0488598
-0.0376243 -0.124787 0.124785
-0.0393502 -0.0488581 -0.131269
-0.0412831 -0.0514919 -0.0514919
-0.0417076 -0.0520611 -1.25314e-06
-0.0412832 -0.051492 0.051492
-0.0393502 -0.0488581 0.131269
-0.0397099 -9.1183e-08 -0.132368
-0.0417076 -1.25251e-06 -0.0520611
-0.0421304 -2.48977e-08 -3.63114e-08
-0.0417077 -1.25236e-06 0.0520611
-0.0397099 -8.87766e-08 0.132368
-0.0393502 0.0488598 -0.131269
-0.0412832 0.051492 -0.0514918
-0.0417077 0.0520611 -1.4321e-06
-0.0412832 0.051492 0.051492
-0.0393502 0.0488598 0.13127
-0.0376243 0.124785 -0.124787
-0.0393502 0.131269 -0.0488581
-0.0397099 0.132368 -8.85685e-08
-0.0393502 0.13127 0.0488597
-0.0376243 0.124785 0.124785
0.0376275 -0.124787 -0.124787
0.0393414 -0.131269 -0.0488584
0.0397033 -0.132367 -8.54399e-08
0.0393414 -0.131269 0.0488601
0.0376275 -0.124787 0.124785
0.0393414 -0.0488584 -0.131269
0.0412812 -0.0514918 -0.0514918
0.0417124 -0.0520612 -1.08773e-06
0.0412813 -0.0514918 0.0514916
0.0393414 -0.0488584 0.13127
0.0397033 -8.64632e-08 -0.132367
0.0417124 -1.08852e-06 -0.0520612
0.042133 3.15387e-07 3.1357e-07
0.0417124 -1.08589e-06 0.0520607
0.0397032 -8.72539e-08 0.132368
0.0393414 0.0488601 -0.131269
0.0412813 0.0514916 -0.0514918
0.0417124 0.0520607 -1.08881e-06
0.0412813 0.0514917 0.0514917
0.0393414 0.0488601 0.13127
0.0376275 0.124785 -0.124787
0.0393414 0.13127 -0.0488584
0.0397033 0.132368 -8.60317e-08
0.0393414 0.13127 0.0488601
0.0376274 0.124785 0.124785
0.118856 -0.119372 -0.119372
0.124407 -0.124968 -0.0466229
0.125348 -0.125925 1.39785e-06
0.124407 -0.124968 0.0466232
0.118856 -0.119372 0.119371
0.124407 -0.0466229 -0.124968
0.130861 -0.0489646 -0.0489646
0.131944 -0.0494638 -1.55116e-07
0.130862 -0.0489647 0.0489641
0.124407 -0.0466229 0.124968
0.125348 1.40336e-06 -0.125925
0.131944 -1.52422e-07 -0.0494638
0.133064 2.17663e-07 2.17256e-07
0.131944 1.04974e-07 0.0494647
0.125348 1.40236e-06 0.125925
0.124407 0.0466232 -0.124968
0.130862 0.0489641 -0.0489647
0.131944 0.0494647 1.02317e-07
0.130862 0.0489638 0.0489638
0.124407 0.0466231 0.124968
0.118856 0.119371 -0.119372
0.124407 0.124968 -0.0466229
0.125348 0.125925 1.39557e-06
0.124407 0.124968 0.0466231
0.118856 0.119371 0.119371
VECTORS force float
-0.170937 -0.177771 -0.177771
-0.177195 -0.184462 -0.227253
-0.180755 -0.188217 6.86669e-06
-0.177194 -0.184462 0.227248
-0.170936 -0.17777 0.17777
-0.177195 -0.227253 -0.184462
-0.184768 -0.233651 -0.233651
-0.18881 -0.236269 -5.12102e-06
-0.184768 -0.233651 0.233657
-0.177195 -0.227253 0.184457
-0.180755 6.86772e-06 -0.188217
-0.18881 -4.90152e-06 -0.236269
-0.193033 1.59807e-06 1.57811e-06
-0.188811 -3.35451e-06 0.236275
-0.180756 6.85274e-06 0.188216
-0.177194 0.227248 -0.184462
-0.184768 0.233657 -0.233651
-0.188811 0.236275 -3.33253e-06
-0.184768 0.233655 0.233655
-0.177194 0.227247 0.184458
-0.170936 0.17777 -0.17777
-0.177194 0.184457 -0.227253
-0.180756 0.188216 6.86153e-06
-0.177194 0.184458 0.227247
-0.170937 0.17777 0.17777
-0.142197 -0.183025 -0.183025
-0.144961 -0.190867 -0.232655
-0.146404 -0.19507 1.57123e-06
-0.14496 -0.190868 0.232658
-0.142197 -0.183025 0.183022
-0.144961 -0.232655 -0.190867
-0.1479 -0.23941 -0.23941
-0.14949 -0.242243 -9.82844e-06
-0.147899 -0.239408 0.239424
-0.14496 -0.232655 0.190863
-0.146404 1.67721e-06 -0.19507
-0.14949 -9.87956e-06 -0.242243
-0.151129 -1.88167e-06 -1.88727e-06
-0.149489 -1.16003e-05 0.242247
-0.146402 1.72634e-06 0.195068
-0.14496 0.232658 -0.190868
-0.147899 0.239425 -0.239408
-0.149489 0.242247 -1.13978e-05
-0.147899 0.239425 0.239424
-0.14496 0.232657 0.190862
-0.142197 0.183021 -0.183025
-0.144961 0.190862 -0.232655
-0.146402 0.195068 1.56698e-06
-0.14496 0.190862 0.232658
-0.142196 0.183021 0.183021
0.1422 -0.183025 -0.183025
0.144959 -0.190867 -0.232655
0.146401 -0.195071 1.55744e-06
0.144959 -0.190868 0.232658
0.1422 -0.183025 0.183022
0.144959 -0.232655 -0.190867
0.147896 -0.239411 -0.23941
0.149489 -0.242243 -9.79367e-06
0.147895 -0.239409 0.239425
0.144959 -0.232655 0.190863
0.146401 1.7152e-06 -0.195071
0.149489 -9.81456e-06 -0.242243
0.151131 -1.84291e-06 -1.84168e-06
0.149488 -1.15882e-05 0.242247
0.1464 1.73742e-06 0.195068
0.144959 0.232658 -0.190868
0.147895 0.239425 -0.239409
0.149487 0.242247 -1.14206e-05
0.147895 0.239425 0.239425
0.144959 0.232658 0.190862
0.1422 0.183022 -0.183025
0.144959 0.190862 -0.232655
0.146399 0.195068 1.58244e-06
0.144959 0.190862 0.232658
0.1422 0.183021 0.183021
0.170935 -0.17777 -0.17777
0.177196 -0.184462 -0.227254
0.180759 -0.188217 6.8568e-06
0.177196 -0.184462 0.227248
0.170935 -0.17777 0.17777
0.177196 -0.227254 -0.184462
0.184767 -0.233651 -0.233651
0.188813 -0.236269 -5.09552e-06
0.184767 -0.233651 0.233657
0.177196 -0.227253 0.184457
0.180759 6.85418e-06 -0.188217
0.188813 -4.87669e-06 -0.236269
0.193041 1.63022e-06 1.61199e-06
0.188813 -3.34212e-06 0.236275
0.180759 6.83931e-06 0.188216
0.177196 0.227248 -0.184462
0.184767 0.233657 -0.233651
0.188813 0.236275 -3.34448e-06
0.184767 0.233655 0.233655
0.177196 0.227247 0.184458
0.170935 0.17777 -0.17777
0.177196 0.184457 -0.227253
0.180759 0.188216 6.84828e-06
0.177196 0.184458 0.227247
0.170935 0.17777 0.17777
-0.170941 -0.177771 -0.177771
-0.177195 -0.184462 -0.227253
-0.180754 -0.188216 6.8704e-06
-0.177195 -0.184462 0.227248
-0.170941 -0.17777 0.17777
-0.177196 -0.227253 -0.184462
-0.184771 -0.233651 -0.233651
-0.188807 -0.236269 -5.11149e-06
-0.184771 -0.233651 0.233657
-0.177195 -0.227253 0.184457
-0.180754 6.86848e-06 -0.188216
-0.188807 -4.89137e-06 -0.236269
-0.193037 1.58442e-06 1.55067e-06
-0.188807 -4.90612e-06 0.236275
-0.180754 6.82498e-06 0.188216
-0.177195 0.227248 -0.184462
-0.184771 0.233657 -0.233651
-0.188807 0.236275 -3.34186e-06
-0.184771 0.233657 0.233655
-0.177195 0.227248 0.184458
-0.170941 0.17777 -0.17777
-0.177195 0.184457 -0.227253
-0.180754 0.188216 6.86226e-06
-0.177195 0.184457 0.227248
-0.170941 0.17777 0.17777
-0.142168 -0.183026 -0.183026
-0.144966 -0.190868 -0.232655
-0.146428 -0.19507 1.55196e-06
-0.144966 -0.190868 0.232659
-0.142168 -0.183025 0.183021
-0.144966 -0.232655 -0.190868
-0.147901 -0.239408 -0.239408
-0.149485 -0.242243 -1.1402e-05
-0.147901 -0.239408 0.239424
-0.144966 -0.232655 0.190862
-0.146428 1.67711e-06 -0.19507
-0.149485 -1.16029e-05 -0.242243
-0.15112 -1.86408e-06 -1.95442e-06
-0.149485 -1.15747e-05 0.242247
-0.146428 1.7303e-06 0.195068
-0.144966 0.232658 -0.190868
-0.147901 0.239424 -0.239406
-0.149485 0.242247 -1.30747e-05
-0.147901 0.239424 0.239424
-0.144966 0.232658 0.190862
-0.142168 0.183021 -0.183025
-0.144966 0.190862 -0.232655
-0.146428 0.195067 1.54652e-06
-0.144966 0.190862 0.232658
-0.142168 0.183021 0.183021
0.142178 -0.183026 -0.183026
0.144947 -0.190868 -0.232657
0.146397 -0.19507 1.5822e-06
0.144947 -0.190868 0.23266
0.142178 -0.183026 0.183021
0.144947 -0.232657 -0.190868
0.147897 -0.23941 -0.23941
0.149494 -0.242245 -9.81969e-06
0.147897 -0.23941 0.239424
0.144947 -0.232657 0.190863
0.146397 1.73692e-06 -0.19507
0.149494 -9.83114e-06 -0.242245
0.15111 -4.19737e-07 -4.51045e-07
0.149494 -9.832e-06 0.242247
0.146396 1.7686e-06 0.195068
0.144947 0.23266 -0.190867
0.147897 0.239424 -0.23941
0.149494 0.242247 -9.83964e-06
0.147897 0.239424 0.239424
0.144947 0.23266 0.190863
0.142178 0.183021 -0.183026
0.144947 0.190863 -0.232657
0.146396 0.195068 1.58656e-06
0.144947 0.190863 0.23266
0.142178 0.183021 0.183021
0.170943 -0.17777 -0.17777
0.177207 -0.184462 -0.227253
0.180776 -0.188216 6.8595e-06
0.177207 -0.184462 0.227248
0.170943 -0.17777 0.177769
0.177207 -0.227253 -0.184462
0.184768 -0.233653 -0.233653
0.188824 -0.23627 -4.86247e-06
0.184768 -0.233653 0.233658
0.177207 -0.227253 0.184458
0.180776 6.87042e-06 -0.188216
0.188824 -4.84564e-06 -0.23627
0.193025 1.66042e-06 1.52066e-06
0.188824 -3.29485e-06 0.236276
0.180776 6.83914e-06 0.188216
0.177207 0.227248 -0.184462
0.184768 0.233658 -0.233653
0.188824 0.236276 -3.31942e-06
0.184768 0.233655 0.233656
0.177207 0.227247 0.184458
0.170943 0.177769 -0.17777
0.177207 0.184457 -0.227253
0.180776 0.188216 6.8481e-06
0.177207 0.184458 0.227247
0.170943 0.17777 0.17777
SCALARS mass float 1
LOOKUP_TABLE default
1
1
1
1
1
1
1
1
1
1
1
1
1
1
1
1
1
1
1
1
1
1
1
1
1
1
1
1
1
1
1
1
1
1
1
1
1
1
1
1
1
1
1
1
1
1
1
1
1
1
1
1
1
1
1
1
1
1
1
1
1
1
1
1
1
1
1
1
1
1
1
1
1
1
1
1
1
1
1
1
1
1
1
1
1
1
1
1
1
1
1
1
1
1
1
1
1
1
1
1
1
1
1
1
1
1
1
1
1
1
1
1
1
1
1
1
1
1
1
1
1
1
1
1
1
1
1
1
1
1
1
1
1
1
1
1
1
1
1
1
1
1
1
1
1
1
1
1
1
1
1
1
1
1
1
1
1
1
1
1
1
1
1
1
1
1
1
1
1
1
1
1
1
1
1
1
1
1
1
1
1
1
1
1
1
1
1
1
1
1
1
1
1
1
1
1
1
1
1
1
