# vtk DataFile Version 3.0
Molecular Dynamics Particle Data
ASCII
DATASET POLYDATA
POINTS 10 float
0.48275 0.479616 0.479616
0.499406 0.478884 0.600568
0.500003 0.479659 0.720505
0.499406 0.600568 0.478884
0.499876 0.6001 0.6001
0.5 0.600008 0.72115
0.500003 0.720505 0.479659
0.5 0.72115 0.600008
0.5 0.720344 0.720344
0.618561 0.499164 0.499164
VERTICES 10 20
1 0
1 1
1 2
1 3
1 4
1 5
1 6
1 7
1 8
1 9
POINT_DATA 10
VECTORS velocity float
-0.0873681 -0.109765 -0.109765
-0.00225701 -0.113913 0.00173159
8.56096e-05 -0.110101 0.111413
-0.00225701 0.0017316 -0.113913
-0.000654964 0.000448257 0.000448257
-9.43854e-07 3.80436e-05 0.11411
8.56095e-05 0.111413 -0.110101
-9.43852e-07 0.11411 3.80486e-05
-4.64548e-06 0.110131 0.110131
0.0923723 -0.00409272 -0.00409272
VECTORS force float
-0.0728051 -0.124472 -0.124472
0.00324574 -0.135941 -0.00871645
0.000534347 -0.133649 0.137596
0.00324574 -0.00871645 -0.13594
-0.00114096 0.000134565 0.000134235
7.79505e-05 -1.04332e-05 0.135714
0.000534347 0.137596 -0.133649
7.79504e-05 0.135714 -1.04928e-05
-4.45887e-06 0.133812 0.133812
0.0662345 -0.0044683 -0.0044683
SCALARS mass float 1
LOOKUP_TABLE default
1
1
1
1
1
1
1
1
1
1
