# vtk DataFile Version 3.0
Molecular Dynamics Particle Data
ASCII
DATASET POLYDATA
POINTS 10 float
0.435587 0.418866 0.418866
0.498455 0.415038 0.600722
0.500081 0.41784 0.783161
0.498455 0.600722 0.415038
0.499412 0.600364 0.600364
0.5 0.600038 0.785014
0.500081 0.783161 0.41784
0.5 0.785014 0.600038
0.5 0.782189 0.782189
0.66793 0.49678 0.49678
VERTICES 10 20
1 0
1 1
1 2
1 3
1 4
1 5
1 6
1 7
1 8
1 9
POINT_DATA 10
VECTORS velocity float
-0.0966445 -0.125164 -0.125164
-0.00181555 -0.13251 -0.000419782
0.000178589 -0.128336 0.130096
-0.00181555 -0.000419781 -0.13251
-0.00114907 0.000606871 0.000606842
1.12231e-05 3.11753e-05 0.132403
0.000178589 0.130096 -0.128336
1.12231e-05 0.132403 3.11791e-05
-5.60066e-06 0.128395 0.128395
0.10105 -0.00510173 -0.00510173
VECTORS force float
-0.00230924 -0.00307517 -0.00307517
-6.0755e-05 -0.00508664 -0.00116797
3.17054e-05 -0.00484923 0.00483593
-6.07543e-05 -0.00116797 -0.00508664
-0.000624561 0.000257456 0.000257449
1.58451e-06 -3.9508e-06 0.00474823
3.17054e-05 0.00483593 -0.00484923
1.58449e-06 0.00474822 -3.9508e-06
-7.75273e-07 0.00485783 0.00485783
0.00298951 -0.000516495 -0.000516495
SCALARS mass float 1
LOOKUP_TABLE default
1
1
1
1
1
1
1
1
1
1
