# vtk DataFile Version 3.0
Molecular Dynamics Particle Data
ASCII
DATASET POLYDATA
POINTS 10 float
0.425913 0.406337 0.406337
0.498274 0.401766 0.600676
0.500099 0.404986 0.796191
0.498274 0.600676 0.401766
0.499294 0.600425 0.600425
0.5 0.600044 0.798274
0.500099 0.796191 0.404986
0.5 0.798274 0.600044
0.5 0.795049 0.795049
0.678048 0.496268 0.496268
VERTICES 10 20
1 0
1 1
1 2
1 3
1 4
1 5
1 6
1 7
1 8
1 9
POINT_DATA 10
VECTORS velocity float
-0.0968211 -0.125393 -0.125393
-0.00182204 -0.132902 -0.00051421
0.000181041 -0.128708 0.130466
-0.00182204 -0.000514209 -0.132902
-0.00120459 0.00062977 0.00062974
1.13026e-05 3.08676e-05 0.132767
0.000181041 0.130466 -0.128708
1.13026e-05 0.132767 3.08713e-05
-5.66772e-06 0.128768 0.128768
0.101291 -0.0051433 -0.0051433
VECTORS force float
-0.00132382 -0.00167029 -0.00167029
-6.43014e-05 -0.00297028 -0.000753549
1.86055e-05 -0.00280871 0.00278048
-6.43009e-05 -0.000753548 -0.00297028
-0.000490155 0.000201774 0.000201771
1.86159e-07 -2.34758e-06 0.0027403
1.86055e-05 0.00278048 -0.00280871
1.86159e-07 0.0027403 -2.34734e-06
-5.76283e-07 0.00281334 0.00281334
0.00190557 -0.00033072 -0.000330721
SCALARS mass float 1
LOOKUP_TABLE default
1
1
1
1
1
1
1
1
1
1
