# vtk DataFile Version 3.0
Molecular Dynamics Particle Data
ASCII
DATASET POLYDATA
POINTS 10 float
0.473731 0.468155 0.468155
0.499194 0.466953 0.6007
0.500015 0.468118 0.732193
0.499194 0.6007 0.466953
0.499804 0.600148 0.600148
0.5 0.600014 0.733099
0.500015 0.732193 0.468118
0.5 0.733099 0.600014
0.5 0.731889 0.731889
0.628052 0.498734 0.498734
VERTICES 10 20
1 0
1 1
1 2
1 3
1 4
1 5
1 6
1 7
1 8
1 9
POINT_DATA 10
VECTORS velocity float
-0.0923379 -0.118299 -0.118299
-0.00199289 -0.123542 0.000921293
0.000128455 -0.119578 0.121167
-0.00199289 0.000921295 -0.123542
-0.00077193 0.000469672 0.000469655
5.19614e-06 3.59876e-05 0.123687
0.000128455 0.121167 -0.119578
5.19614e-06 0.123687 3.59922e-05
-4.99293e-06 0.119621 0.119621
0.0968332 -0.00448237 -0.00448237
VECTORS force float
-0.0325276 -0.0553881 -0.0553881
0.00191657 -0.0653747 -0.00707047
0.000326915 -0.0643338 0.0661251
0.00191657 -0.00707042 -0.0653746
-0.00118567 0.000297958 0.000297808
4.56472e-05 -2.38579e-05 0.0646346
0.000326915 0.0661251 -0.0643338
4.56472e-05 0.0646345 -2.38728e-05
-2.74417e-06 0.0644397 0.0644397
0.0291378 -0.00330639 -0.00330639
SCALARS mass float 1
LOOKUP_TABLE default
1
1
1
1
1
1
1
1
1
1
