# vtk DataFile Version 3.0
Molecular Dynamics Particle Data
ASCII
DATASET POLYDATA
POINTS 10 float
0.445237 0.431363 0.431363
0.498637 0.428258 0.600758
0.500064 0.430644 0.770181
0.498637 0.600758 0.428258
0.499524 0.600305 0.600305
0.5 0.600032 0.771803
0.500064 0.770181 0.430644
0.5 0.771803 0.600032
0.5 0.769379 0.769379
0.657842 0.497288 0.497288
VERTICES 10 20
1 0
1 1
1 2
1 3
1 4
1 5
1 6
1 7
1 8
1 9
POINT_DATA 10
VECTORS velocity float
-0.0963303 -0.124732 -0.124732
-0.00181165 -0.131825 -0.000272041
0.000174348 -0.127679 0.129438
-0.00181165 -0.00027204 -0.131825
-0.00107882 0.000578073 0.000578045
1.09327e-05 3.16929e-05 0.131758
0.000174348 0.129438 -0.127679
1.09327e-05 0.131758 3.16966e-05
-5.51031e-06 0.127737 0.127737
0.100667 -0.00503579 -0.00503579
VECTORS force float
-0.00417653 -0.00590956 -0.00590956
-2.66701e-06 -0.00903542 -0.00184171
5.55019e-05 -0.00869305 0.00873818
-2.66689e-06 -0.00184172 -0.00903541
-0.000784242 0.000318941 0.000318927
4.59114e-06 -6.58277e-06 0.00854963
5.55019e-05 0.00873818 -0.00869305
4.59113e-06 0.00854963 -6.5837e-06
-1.04543e-06 0.00870922 0.00870922
0.00484697 -0.000829644 -0.000829644
SCALARS mass float 1
LOOKUP_TABLE default
1
1
1
1
1
1
1
1
1
1
