# vtk DataFile Version 3.0
Molecular Dynamics Particle Data
ASCII
DATASET POLYDATA
POINTS 10 float
0.464369 0.45611 0.45611
0.499002 0.454338 0.600761
0.500028 0.455903 0.744573
0.499002 0.600761 0.454338
0.499721 0.600196 0.600196
0.5 0.60002 0.745725
0.500028 0.744573 0.455903
0.5 0.745725 0.60002
0.5 0.744109 0.744109
0.637851 0.498271 0.498271
VERTICES 10 20
1 0
1 1
1 2
1 3
1 4
1 5
1 6
1 7
1 8
1 9
POINT_DATA 10
VECTORS velocity float
-0.0946265 -0.122117 -0.122117
-0.00186435 -0.128221 0.000337433
0.000153199 -0.124174 0.12588
-0.00186435 0.000337434 -0.128221
-0.000887832 0.000504897 0.000504873
8.56032e-06 3.39351e-05 0.128286
0.000153199 0.12588 -0.124174
8.56032e-06 0.128286 3.3939e-05
-5.22277e-06 0.124225 0.124225
0.0989247 -0.00475493 -0.00475493
VECTORS force float
-0.0155509 -0.0251272 -0.0251272
0.00076315 -0.0323513 -0.00467803
0.000181029 -0.0316795 0.0323617
0.00076315 -0.00467803 -0.0323513
-0.00111265 0.000386558 0.000386514
2.34053e-05 -1.72242e-05 0.031548
0.000181029 0.0323617 -0.0316795
2.34053e-05 0.031548 -1.72168e-05
-1.92863e-06 0.0317377 0.0317377
0.0147303 -0.00218064 -0.00218064
SCALARS mass float 1
LOOKUP_TABLE default
1
1
1
1
1
1
1
1
1
1
