# vtk DataFile Version 3.0
Molecular Dynamics Particle Data
ASCII
DATASET POLYDATA
POINTS 10 float
0.490992 0.489769 0.489769
0.499647 0.489397 0.600355
0.499998 0.489808 0.710249
0.499647 0.600355 0.489397
0.499936 0.600058 0.600058
0.5 0.600003 0.710617
0.499998 0.710249 0.489808
0.5 0.710617 0.600003
0.5 0.710194 0.710194
0.609786 0.499548 0.499548
VERTICES 10 20
1 0
1 1
1 2
1 3
1 4
1 5
1 6
1 7
1 8
1 9
POINT_DATA 10
VECTORS velocity float
-0.0758298 -0.0909431 -0.0909431
-0.00252801 -0.0940152 0.00245548
2.47907e-05 -0.0906121 0.0914044
-0.00252801 0.00245548 -0.0940152
-0.000537967 0.000434928 0.000434931
-9.47211e-06 3.54465e-05 0.0941848
2.47907e-05 0.0914044 -0.0906121
-9.47211e-06 0.0941848 3.54512e-05
-4.00189e-06 0.0906251 0.0906251
0.0813971 -0.00356969 -0.00356969
VECTORS force float
-0.17277 -0.266498 -0.266498
0.000914975 -0.276126 -0.00393119
0.000626958 -0.269395 0.27557
0.000914977 -0.0039312 -0.276126
-0.00130437 0.000274028 0.000274056
8.11967e-05 8.7134e-05 0.276942
0.000626958 0.27557 -0.269395
8.11967e-05 0.276942 8.72234e-05
-9.23295e-06 0.269535 0.269535
0.170837 -0.00645656 -0.00645656
SCALARS mass float 1
LOOKUP_TABLE default
1
1
1
1
1
1
1
1
1
1
