# vtk DataFile Version 3.0
Molecular Dynamics Particle Data
ASCII
DATASET POLYDATA
POINTS 10 float
0.497407 0.497198 0.497198
0.499887 0.497085 0.600114
0.499998 0.497204 0.702804
0.499887 0.600114 0.497085
0.499981 0.600018 0.600018
0.5 0.6 0.702918
0.499998 0.702804 0.497204
0.5 0.702918 0.6
0.5 0.702797 0.702797
0.602843 0.499862 0.499862
VERTICES 10 20
1 0
1 1
1 2
1 3
1 4
1 5
1 6
1 7
1 8
1 9
POINT_DATA 10
VECTORS velocity float
-0.0489262 -0.0541751 -0.0541751
-0.00204473 -0.0562251 0.00207753
-1.96901e-05 -0.0539797 0.0541978
-0.00204473 0.00207753 -0.0562251
-0.000352642 0.000332947 0.000332949
-1.28048e-05 1.85768e-05 0.0562883
-1.96901e-05 0.0541978 -0.0539797
-1.28048e-05 0.0562883 1.85795e-05
-2.57617e-06 0.0539853 0.0539853
0.0534358 -0.00252058 -0.00252058
VECTORS force float
-0.383859 -0.470704 -0.470704
-0.0126403 -0.484154 0.0130743
0.000146064 -0.466772 0.471118
-0.0126403 0.0130741 -0.484154
-0.00265424 0.00213143 0.00213174
-4.15378e-05 0.000195926 0.485173
0.000146065 0.471118 -0.466772
-4.15378e-05 0.485173 0.000195955
-2.03039e-05 0.466824 0.466824
0.411605 -0.0168876 -0.0168876
SCALARS mass float 1
LOOKUP_TABLE default
1
1
1
1
1
1
1
1
1
1
