# vtk DataFile Version 3.0
Molecular Dynamics Particle Data
ASCII
DATASET POLYDATA
POINTS 25 float
0.478808 0.478808 0.478805
0.477932 0.477932 0.6
0.478821 0.478821 0.721195
0.477952 0.600012 0.477931
0.477099 0.600077 0.600011
0.478111 0.600078 0.722075
0.478973 0.721199 0.478885
0.480774 0.722105 0.600069
0.4817 0.721217 0.721143
0.600012 0.477952 0.477931
0.600077 0.477099 0.600011
0.600078 0.478111 0.722075
0.600075 0.600075 0.477016
0.600432 0.600432 0.600084
0.600432 0.600432 0.723025
0.600383 0.722114 0.478477
0.617427 0.723223 0.600672
0.617406 0.722222 0.721415
0.721199 0.478973 0.478885
0.722105 0.480774 0.600069
0.721217 0.4817 0.721143
0.722114 0.600383 0.478477
0.723223 0.617427 0.600672
0.722222 0.617406 0.721415
0.721422 0.721422 0.498512
VERTICES 25 50
1 0
1 1
1 2
1 3
1 4
1 5
1 6
1 7
1 8
1 9
1 10
1 11
1 12
1 13
1 14
1 15
1 16
1 17
1 18
1 19
1 20
1 21
1 22
1 23
1 24
POINT_DATA 25
VECTORS velocity float
-0.11382 -0.11382 -0.11384
-0.117963 -0.117963 1.22937e-05
-0.113712 -0.113712 0.113847
-0.117862 8.53933e-05 -0.117996
-0.121643 0.000590889 8.01462e-05
-0.11678 0.000602484 0.118043
-0.112695 0.113881 -0.113198
-0.0946549 0.118333 0.000537796
-0.0899912 0.114081 0.113496
8.53922e-05 -0.117862 -0.117996
0.000590889 -0.121643 8.01467e-05
0.000602482 -0.11678 0.118043
0.000251965 0.000251965 -0.122492
0.000933993 0.000933994 0.000293018
0.000941465 0.000941467 0.122793
0.00114573 0.118327 -0.116028
0.0857623 0.123831 0.00280143
0.0858003 0.119052 0.11526
0.113881 -0.112695 -0.113198
0.118333 -0.0946549 0.000537798
0.114081 -0.0899912 0.113496
0.118327 0.00114572 -0.116028
0.123831 0.0857623 0.00280149
0.119052 0.0858003 0.11526
0.115502 0.115502 -0.00660405
VECTORS force float
-0.131943 -0.131943 -0.132006
-0.132718 -0.132718 4.30387e-05
-0.131496 -0.131496 0.132019
-0.13289 0.000180432 -0.133004
-0.133228 0.00187545 0.000161717
-0.131678 0.00194777 0.133174
-0.130571 0.132159 -0.129814
-0.0590811 0.134499 0.0015705
-0.0555771 0.133283 0.131575
0.000180439 -0.13289 -0.133004
0.00187543 -0.133228 0.000161719
0.00194777 -0.131678 0.133174
-0.000208703 -0.000208705 -0.135173
-0.0038466 -0.00384663 -0.000364264
-0.00359813 -0.00359811 0.135764
0.00177668 0.133732 -0.135073
0.0486007 0.136145 -0.00188402
0.052909 0.134652 0.135421
0.132159 -0.130571 -0.129814
0.134499 -0.0590811 0.00157051
0.133283 -0.0555771 0.131575
0.133732 0.00177658 -0.135073
0.136145 0.0486008 -0.00188384
0.134652 0.052909 0.135421
0.135074 0.135074 -0.00453608
SCALARS mass float 1
LOOKUP_TABLE default
1
1
1
1
1
1
1
1
1
1
1
1
1
1
1
1
1
1
1
1
1
1
1
1
1
