# vtk DataFile Version 3.0
Molecular Dynamics Particle Data
ASCII
DATASET POLYDATA
POINTS 25 float
0.388983 0.388983 0.388959
0.385291 0.385291 0.6
0.389125 0.389125 0.811047
0.385335 0.600094 0.385225
0.381804 0.600705 0.600091
0.386191 0.600726 0.814828
0.389924 0.81109 0.389723
0.410977 0.815174 0.600554
0.41538 0.811339 0.810757
0.600094 0.385335 0.385225
0.600705 0.381804 0.600091
0.600726 0.386191 0.814828
0.600269 0.600269 0.381111
0.601104 0.601104 0.600293
0.601203 0.601203 0.819162
0.602122 0.815098 0.387251
0.678094 0.820477 0.603267
0.6799 0.816175 0.812608
0.81109 0.389924 0.389723
0.815174 0.410977 0.600554
0.811339 0.41538 0.810757
0.815098 0.602122 0.387251
0.820477 0.678094 0.603267
0.816175 0.6799 0.812608
0.813426 0.813426 0.490836
VERTICES 25 50
1 0
1 1
1 2
1 3
1 4
1 5
1 6
1 7
1 8
1 9
1 10
1 11
1 12
1 13
1 14
1 15
1 16
1 17
1 18
1 19
1 20
1 21
1 22
1 23
1 24
POINT_DATA 25
VECTORS velocity float
-0.131967 -0.131967 -0.132
-0.135898 -0.135898 2.13558e-05
-0.131751 -0.131751 0.13201
-0.135896 0.0001097 -0.136016
-0.139747 0.00101602 0.000103324
-0.134999 0.00105691 0.13609
-0.130912 0.132073 -0.130901
-0.100623 0.136571 0.000715621
-0.0956027 0.132419 0.131695
0.000109699 -0.135896 -0.136016
0.00101602 -0.139747 0.000103324
0.0010569 -0.134999 0.13609
0.000299417 0.000299416 -0.140556
0.00114809 0.0011481 0.000279058
0.00136905 0.00136906 0.140878
0.00324152 0.136425 -0.133665
0.0842949 0.143095 0.00506121
0.0890841 0.138522 0.134115
0.132073 -0.130912 -0.130901
0.136571 -0.100623 0.000715623
0.132419 -0.0956027 0.131695
0.136425 0.0032415 -0.133665
0.143095 0.0842949 0.0050613
0.138522 0.0890841 0.134115
0.136671 0.136671 -0.0150275
VECTORS force float
-0.00153561 -0.00153561 -0.00153797
-0.00145099 -0.00145099 1.78076e-06
-0.00151155 -0.00151155 0.00153871
-0.00147775 2.55319e-06 -0.00147145
-0.00150398 0.000100071 2.46618e-06
-0.00158079 0.000114172 0.00147313
-0.00158936 0.00154387 -0.00144368
-0.000167 0.00146216 -2.13088e-05
-0.000160008 0.00151753 0.00156918
2.55371e-06 -0.00147775 -0.00147145
0.000100071 -0.00150398 2.46612e-06
0.000114172 -0.00158079 0.00147313
2.33989e-05 2.33988e-05 -0.00142222
0.000239235 0.000239235 9.07312e-06
0.000331755 0.000331755 0.00140399
0.000663835 0.00147036 -0.00115057
-0.00552459 0.00260457 0.00302808
-0.00161547 0.00292484 0.00170785
0.00154387 -0.00158936 -0.00144368
0.00146216 -0.000167 -2.13087e-05
0.00151754 -0.000160008 0.00156918
0.00147036 0.000663835 -0.00115057
0.00260457 -0.0055246 0.00302809
0.00292484 -0.00161547 0.00170785
0.00511872 0.00511873 -0.00738078
SCALARS mass float 1
LOOKUP_TABLE default
1
1
1
1
1
1
1
1
1
1
1
1
1
1
1
1
1
1
1
1
1
1
1
1
1
