# vtk DataFile Version 3.0
Molecular Dynamics Particle Data
ASCII
DATASET POLYDATA
POINTS 25 float
0.49706 0.49706 0.497059
0.496921 0.496921 0.6
0.49706 0.49706 0.70294
0.496923 0.6 0.496921
0.496773 0.600004 0.6
0.496931 0.600004 0.703079
0.497069 0.70294 0.497064
0.497021 0.70308 0.600003
0.497161 0.702941 0.702937
0.6 0.496923 0.496921
0.600004 0.496773 0.6
0.600004 0.496931 0.703079
0.600018 0.600018 0.496782
0.600121 0.600121 0.600018
0.600121 0.600121 0.70322
0.600104 0.703081 0.497034
0.602693 0.703244 0.600117
0.602691 0.703086 0.702965
0.70294 0.497069 0.497064
0.70308 0.497021 0.600003
0.702941 0.497161 0.702937
0.703081 0.600104 0.497034
0.703244 0.602693 0.600117
0.703086 0.602691 0.702965
0.702949 0.702949 0.499737
VERTICES 25 50
1 0
1 1
1 2
1 3
1 4
1 5
1 6
1 7
1 8
1 9
1 10
1 11
1 12
1 13
1 14
1 15
1 16
1 17
1 18
1 19
1 20
1 21
1 22
1 23
1 24
POINT_DATA 25
VECTORS velocity float
-0.0566487 -0.0566487 -0.056652
-0.0592481 -0.0592481 2.67415e-06
-0.0566313 -0.0566313 0.0566547
-0.0592043 2.74109e-05 -0.0592436
-0.0619208 0.000118506 2.50364e-05
-0.0589519 0.000118521 0.0592509
-0.0563821 0.0566585 -0.0565426
-0.0558194 0.059283 9.86194e-05
-0.0531874 0.0566662 0.056565
2.74095e-05 -0.0592043 -0.0592436
0.000118505 -0.0619208 2.50366e-05
0.00011852 -0.0589519 0.0592509
0.000301584 0.000301584 -0.0618767
0.0019866 0.0019866 0.00030981
0.00199036 0.00199036 0.0619451
0.00170043 0.0593122 -0.0572532
0.0504989 0.0624344 0.00216861
0.0504601 0.0594763 0.0571387
0.0566585 -0.0563821 -0.0565426
0.059283 -0.0558194 9.86193e-05
0.0566662 -0.0531874 0.056565
0.0593122 0.00170043 -0.0572532
0.0624344 0.0504989 0.00216861
0.0594763 0.0504601 0.0571387
0.0569611 0.0569611 -0.00479853
VECTORS force float
-0.485644 -0.485644 -0.48568
-0.505266 -0.505266 3.93621e-05
-0.485302 -0.485302 0.48571
-0.504622 0.000385382 -0.505311
-0.52235 0.00205205 0.00036539
-0.499635 0.00206581 0.505397
-0.480436 0.485767 -0.483588
-0.424231 0.506051 0.00185392
-0.40365 0.486078 0.484116
0.000385258 -0.504622 -0.505311
0.00205204 -0.52235 0.000365389
0.00206584 -0.499635 0.505397
0.00114583 0.00114581 -0.525992
0.0055128 0.00551275 0.00156884
0.00555316 0.00555316 0.527154
0.00403603 0.50663 -0.494748
0.385255 0.532856 0.0154721
0.384179 0.510455 0.490781
0.485767 -0.480436 -0.483588
0.506051 -0.424231 0.00185393
0.486078 -0.40365 0.484116
0.50663 0.00403615 -0.494748
0.532856 0.385255 0.0154721
0.510455 0.384179 0.490781
0.493114 0.493114 -0.0314745
SCALARS mass float 1
LOOKUP_TABLE default
1
1
1
1
1
1
1
1
1
1
1
1
1
1
1
1
1
1
1
1
1
1
1
1
1
