# vtk DataFile Version 3.0
Molecular Dynamics Particle Data
ASCII
DATASET POLYDATA
POINTS 25 float
0.489332 0.489332 0.489331
0.48886 0.48886 0.6
0.489336 0.489336 0.710669
0.488869 0.600006 0.48886
0.48839 0.600028 0.600005
0.488931 0.600028 0.711142
0.489396 0.71067 0.489359
0.489807 0.711151 0.600024
0.490291 0.710674 0.710649
0.600006 0.488869 0.48886
0.600028 0.48839 0.600005
0.600028 0.488931 0.711142
0.600048 0.600048 0.488377
0.60031 0.60031 0.600053
0.600311 0.600311 0.711639
0.600265 0.711156 0.489196
0.609231 0.711736 0.600384
0.60922 0.711199 0.710767
0.71067 0.489396 0.489359
0.711151 0.489807 0.600024
0.710674 0.490291 0.710649
0.711156 0.600265 0.489196
0.711736 0.609231 0.600384
0.711199 0.60922 0.710767
0.710752 0.710752 0.499158
VERTICES 25 50
1 0
1 1
1 2
1 3
1 4
1 5
1 6
1 7
1 8
1 9
1 10
1 11
1 12
1 13
1 14
1 15
1 16
1 17
1 18
1 19
1 20
1 21
1 22
1 23
1 24
POINT_DATA 25
VECTORS velocity float
-0.0943118 -0.0943118 -0.0943231
-0.0981528 -0.0981528 7.6031e-06
-0.0942513 -0.0942513 0.0943281
-0.0980557 6.23185e-05 -0.0981609
-0.101701 0.00036708 5.88066e-05
-0.0972563 0.000371477 0.0981861
-0.0934815 0.0943452 -0.0939418
-0.0841853 0.0983292 0.000332704
-0.0801137 0.0944259 0.0940691
6.23173e-05 -0.0980557 -0.0981609
0.000367079 -0.101701 5.8807e-05
0.000371476 -0.0972563 0.0981861
0.000297052 0.000297052 -0.102192
0.00158216 0.00158216 0.000341024
0.00158202 0.00158202 0.102397
0.00135113 0.098383 -0.0959133
0.076405 0.103327 0.00292909
0.0762519 0.0989404 0.0953234
0.0943452 -0.0934815 -0.0939418
0.0983292 -0.0841853 0.000332704
0.0944259 -0.0801137 0.0940691
0.098383 0.00135113 -0.0959133
0.103327 0.076405 0.00292912
0.0989404 0.0762519 0.0953234
0.0954878 0.0954878 -0.00632488
VECTORS force float
-0.27283 -0.27283 -0.27293
-0.279182 -0.279182 5.13214e-05
-0.272345 -0.272345 0.27295
-0.278891 0.000289138 -0.279383
-0.282266 0.00255419 0.000270857
-0.274256 0.00262062 0.279628
-0.26809 0.273131 -0.270002
-0.168804 0.281096 0.0024496
-0.15965 0.274243 0.271516
0.000289151 -0.278891 -0.279383
0.00255425 -0.282266 0.000270858
0.00262062 -0.274256 0.279628
-0.000597806 -0.000597766 -0.287532
-0.00835288 -0.0083528 -0.000447402
-0.00841488 -0.00841477 0.288845
-0.00563737 0.280833 -0.281817
0.15471 0.291303 0.00108959
0.154399 0.283762 0.277822
0.273131 -0.26809 -0.270002
0.281096 -0.168804 0.00244962
0.274243 -0.15965 0.271516
0.280833 -0.00563744 -0.281817
0.291303 0.15471 0.00109017
0.283762 0.154399 0.277822
0.280375 0.280375 -0.00408359
SCALARS mass float 1
LOOKUP_TABLE default
1
1
1
1
1
1
1
1
1
1
1
1
1
1
1
1
1
1
1
1
1
1
1
1
1
