# vtk DataFile Version 3.0
Molecular Dynamics Particle Data
ASCII
DATASET POLYDATA
POINTS 25 float
0.441477 0.441477 0.441466
0.439371 0.439371 0.6
0.441537 0.441537 0.758536
0.43941 0.600046 0.439349
0.437415 0.600312 0.600043
0.439891 0.60032 0.760675
0.441988 0.758554 0.441805
0.451182 0.760829 0.600268
0.45358 0.758663 0.758377
0.600046 0.43941 0.439349
0.600312 0.437415 0.600043
0.60032 0.439891 0.760675
0.60015 0.60015 0.437058
0.600679 0.600679 0.600174
0.600703 0.600703 0.763084
0.600929 0.760811 0.440478
0.643795 0.763642 0.601549
0.644108 0.761201 0.759279
0.758554 0.441988 0.441805
0.760829 0.451182 0.600268
0.758663 0.45358 0.758377
0.760811 0.600929 0.440478
0.763642 0.643795 0.601549
0.761201 0.644108 0.759279
0.759404 0.759404 0.496041
VERTICES 25 50
1 0
1 1
1 2
1 3
1 4
1 5
1 6
1 7
1 8
1 9
1 10
1 11
1 12
1 13
1 14
1 15
1 16
1 17
1 18
1 19
1 20
1 21
1 22
1 23
1 24
POINT_DATA 25
VECTORS velocity float
-0.129686 -0.129686 -0.129716
-0.133707 -0.133707 1.94212e-05
-0.129496 -0.129496 0.129725
-0.133675 0.000106597 -0.133803
-0.1375 0.000913655 0.000100432
-0.132674 0.000943423 0.133873
-0.128572 0.129782 -0.128717
-0.100225 0.134344 0.000716354
-0.0952251 0.130132 0.129382
0.000106596 -0.133675 -0.133803
0.000913654 -0.1375 0.000100433
0.000943421 -0.132674 0.133873
0.00027558 0.000275579 -0.138388
0.00092391 0.000923911 0.000270791
0.00106088 0.00106089 0.138724
0.00252815 0.134208 -0.131729
0.0875019 0.140209 0.00340036
0.0898708 0.135463 0.131672
0.129782 -0.128572 -0.128717
0.134344 -0.100225 0.000716356
0.130132 -0.0952251 0.129382
0.134208 0.00252813 -0.131729
0.140209 0.0875019 0.00340044
0.135463 0.0898708 0.131672
0.132496 0.132496 -0.0104249
VECTORS force float
-0.0152843 -0.0152843 -0.0153013
-0.0148294 -0.0148293 1.04965e-05
-0.0151479 -0.0151479 0.0153051
-0.0149831 1.90824e-05 -0.0149438
-0.0151053 0.000532299 1.78101e-05
-0.01549 0.000578088 0.014971
-0.0155848 0.0153388 -0.0147623
-0.0033328 0.0151091 8.77043e-05
-0.00314208 0.015422 0.0154335
1.90859e-05 -0.0149831 -0.0149438
0.000532303 -0.0151054 1.78101e-05
0.000578091 -0.01549 0.014971
0.000117495 0.000117496 -0.0147592
0.000987016 0.000987024 3.13533e-05
0.00136773 0.00136773 0.0147107
0.00366988 0.0149865 -0.0138036
-0.00929793 0.0170166 0.00465778
-0.000993268 0.0175348 0.016107
0.0153388 -0.0155848 -0.0147623
0.0151091 -0.0033328 8.77051e-05
0.015422 -0.00314208 0.0154335
0.0149865 0.00366987 -0.0138036
0.0170166 -0.00929792 0.00465779
0.0175348 -0.000993267 0.016107
0.0205115 0.0205115 -0.0155275
SCALARS mass float 1
LOOKUP_TABLE default
1
1
1
1
1
1
1
1
1
1
1
1
1
1
1
1
1
1
1
1
1
1
1
1
1
