# vtk DataFile Version 3.0
Molecular Dynamics Particle Data
ASCII
DATASET POLYDATA
POINTS 25 float
0.428446 0.428446 0.428432
0.42594 0.42594 0.6
0.428526 0.428526 0.771571
0.425981 0.600058 0.425908
0.423604 0.600406 0.600055
0.426561 0.600416 0.774124
0.429067 0.771595 0.428873
0.441147 0.774325 0.60034
0.444045 0.771739 0.771378
0.600058 0.425981 0.425908
0.600406 0.423604 0.600055
0.600416 0.426561 0.774124
0.600179 0.600179 0.423159
0.600777 0.600777 0.600203
0.600815 0.600815 0.777016
0.601198 0.774293 0.42725
0.652498 0.777734 0.601913
0.653087 0.774821 0.772512
0.771595 0.429067 0.428873
0.774325 0.441147 0.60034
0.771739 0.444045 0.771378
0.774293 0.601198 0.42725
0.777734 0.652498 0.601913
0.774821 0.653087 0.772512
0.772743 0.772743 0.494923
VERTICES 25 50
1 0
1 1
1 2
1 3
1 4
1 5
1 6
1 7
1 8
1 9
1 10
1 11
1 12
1 13
1 14
1 15
1 16
1 17
1 18
1 19
1 20
1 21
1 22
1 23
1 24
POINT_DATA 25
VECTORS velocity float
-0.130813 -0.130813 -0.130845
-0.134796 -0.134796 2.02637e-05
-0.130612 -0.130612 0.130854
-0.134777 0.000108041 -0.134901
-0.138613 0.000956923 0.000101769
-0.133819 0.000990768 0.134974
-0.129725 0.130914 -0.129803
-0.10045 0.135453 0.000720572
-0.0954383 0.131267 0.130522
0.00010804 -0.134777 -0.134901
0.000956922 -0.138613 0.00010177
0.000990766 -0.133819 0.134974
0.000285447 0.000285446 -0.13947
0.00101145 0.00101146 0.00027384
0.00118132 0.00118133 0.139801
0.00283123 0.135309 -0.132724
0.086551 0.141513 0.0038759
0.0896986 0.136817 0.132866
0.130914 -0.129725 -0.129803
0.135453 -0.10045 0.000720574
0.131267 -0.0954383 0.130522
0.135309 0.00283121 -0.132724
0.141513 0.086551 0.00387598
0.136817 0.0896986 0.132866
0.134155 0.134155 -0.0118975
VECTORS force float
-0.00810206 -0.00810206 -0.00811221
-0.0077964 -0.0077964 6.61328e-06
-0.00801473 -0.00801473 0.00811467
-0.0078959 1.06872e-05 -0.00787078
-0.00798525 0.000346323 9.89846e-06
-0.00825396 0.000382248 0.00788448
-0.00830751 0.00813499 -0.00777198
-0.00145867 0.00792875 9.51334e-06
-0.00138037 0.00813878 0.00821044
1.06881e-05 -0.00789589 -0.00787078
0.000346327 -0.00798525 9.89873e-06
0.000382248 -0.00825395 0.00788448
8.11312e-05 8.11291e-05 -0.00772176
0.000753783 0.000753783 2.79304e-05
0.00103259 0.00103259 0.0076751
0.00244901 0.00788598 -0.0069569
-0.00937846 0.00984538 0.00472842
-0.00216002 0.0103353 0.00864198
0.00813499 -0.00830751 -0.00777198
0.00792875 -0.00145867 9.51354e-06
0.00813878 -0.00138037 0.00821044
0.00788598 0.002449 -0.0069569
0.00984538 -0.00937846 0.00472842
0.0103353 -0.00216002 0.00864198
0.0134084 0.0134084 -0.0137605
SCALARS mass float 1
LOOKUP_TABLE default
1
1
1
1
1
1
1
1
1
1
1
1
1
1
1
1
1
1
1
1
1
1
1
1
1
