# vtk DataFile Version 3.0
Molecular Dynamics Particle Data
ASCII
DATASET POLYDATA
POINTS 25 float
0.415331 0.415331 0.415314
0.412428 0.412428 0.6
0.415431 0.415431 0.78469
0.412471 0.60007 0.412385
0.40971 0.600502 0.600067
0.413145 0.600518 0.787653
0.41606 0.78472 0.415861
0.431096 0.787903 0.600411
0.434496 0.784899 0.784464
0.60007 0.412471 0.412385
0.600502 0.40971 0.600067
0.600518 0.413145 0.787653
0.600209 0.600209 0.40918
0.600881 0.600881 0.600233
0.600938 0.600938 0.791028
0.601492 0.787856 0.413949
0.661107 0.791927 0.602324
0.662046 0.788547 0.785834
0.78472 0.41606 0.415861
0.787903 0.431096 0.600411
0.784899 0.434496 0.784464
0.787856 0.601492 0.413949
0.791927 0.661107 0.602324
0.788547 0.662046 0.785834
0.786218 0.786218 0.493669
VERTICES 25 50
1 0
1 1
1 2
1 3
1 4
1 5
1 6
1 7
1 8
1 9
1 10
1 11
1 12
1 13
1 14
1 15
1 16
1 17
1 18
1 19
1 20
1 21
1 22
1 23
1 24
POINT_DATA 25
VECTORS velocity float
-0.131423 -0.131423 -0.131455
-0.135381 -0.135381 2.07953e-05
-0.131214 -0.131214 0.131465
-0.13537 0.000108874 -0.135492
-0.139213 0.000985158 0.000102542
-0.134441 0.00102208 0.135565
-0.130351 0.131526 -0.130386
-0.100552 0.136047 0.00071994
-0.0955343 0.131878 0.131141
0.000108873 -0.13537 -0.135492
0.000985157 -0.139213 0.000102543
0.00102207 -0.134441 0.135565
0.000292115 0.000292115 -0.140047
0.00107506 0.00107506 0.000276252
0.00126845 0.00126845 0.140375
0.00303013 0.135901 -0.133236
0.0856654 0.142288 0.00432916
0.089474 0.137639 0.13352
0.131526 -0.130351 -0.130386
0.136047 -0.100552 0.000719942
0.131878 -0.0955343 0.131141
0.135901 0.00303011 -0.133236
0.142288 0.0856654 0.00432924
0.137639 0.089474 0.13352
0.135277 0.135277 -0.0131607
VECTORS force float
-0.00448293 -0.00448293 -0.00448907
-0.00428399 -0.00428399 4.19486e-06
-0.00442661 -0.00442661 0.00449072
-0.0043475 6.39396e-06 -0.00433179
-0.00440812 0.000227075 5.94365e-06
-0.00458645 0.000253249 0.00433864
-0.00461521 0.00450325 -0.00427087
-0.00067569 0.00434454 -1.68955e-05
-0.000641998 0.00447996 0.00455714
6.39387e-06 -0.0043475 -0.00433179
0.000227073 -0.00440812 5.94351e-06
0.000253251 -0.00458645 0.00433864
5.38804e-05 5.38803e-05 -0.00422557
0.000526417 0.000526416 2.02519e-05
0.000721936 0.000721936 0.00418942
0.00158666 0.00433609 -0.0036666
-0.00823785 0.00604664 0.004285
-0.00223384 0.00648364 0.00484596
0.00450325 -0.00461521 -0.00427087
0.00434454 -0.00067569 -1.68952e-05
0.00447996 -0.000641998 0.00455714
0.00433609 0.00158666 -0.00366661
0.00604664 -0.00823785 0.004285
0.00648364 -0.00223384 0.00484596
0.00937047 0.00937048 -0.011483
SCALARS mass float 1
LOOKUP_TABLE default
1
1
1
1
1
1
1
1
1
1
1
1
1
1
1
1
1
1
1
1
1
1
1
1
1
