# vtk DataFile Version 3.0
Molecular Dynamics Particle Data
ASCII
DATASET POLYDATA
POINTS 500 float
0.373966 0.373966 0.373966
0.368448 0.368448 0.524939
0.366561 0.366561 0.658099
0.365917 0.365917 0.786247
0.365917 0.365917 0.913752
0.366561 0.366561 1.0419
0.368448 0.368448 1.17506
0.373966 0.373966 1.32603
0.368448 0.524939 0.368448
0.361978 0.522227 0.522227
0.359812 0.520949 0.656627
0.359082 0.520394 0.785767
0.359082 0.520394 0.914236
0.359811 0.520949 1.04337
0.361978 0.522227 1.17777
0.368448 0.524939 1.33156
0.366561 0.658099 0.366561
0.359812 0.656627 0.520949
0.357511 0.655889 0.655889
0.356733 0.655547 0.785521
0.356733 0.655547 0.914479
0.357511 0.655889 1.04411
0.359811 0.656628 1.17905
0.366561 0.658099 1.33344
0.365917 0.786247 0.365917
0.359082 0.785767 0.520394
0.356733 0.785521 0.655547
0.355929 0.785405 0.785405
0.355929 0.785405 0.914594
0.356734 0.785521 1.04445
0.359083 0.785767 1.17961
0.365918 0.786247 1.33408
0.365918 0.913752 0.365917
0.359082 0.914236 0.520394
0.356733 0.914479 0.655547
0.35593 0.914594 0.785405
0.355931 0.914595 0.914594
0.356734 0.91448 1.04445
0.359084 0.914237 1.17961
0.365919 0.913752 1.33408
0.366562 1.0419 0.366561
0.359813 1.04337 0.520949
0.357514 1.04411 0.655889
0.356736 1.04445 0.785521
0.356741 1.04445 0.914479
0.357522 1.04411 1.04411
0.359821 1.04338 1.17905
0.366569 1.0419 1.33344
0.368454 1.17506 0.368448
0.361985 1.17777 0.522227
0.35982 1.17905 0.656628
0.359095 1.17961 0.785769
0.359122 1.17961 0.914237
0.359855 1.17905 1.04337
0.362018 1.17777 1.17777
0.368488 1.17506 1.33155
0.374007 1.32603 0.373967
0.368488 1.33156 0.52494
0.366604 1.33344 0.6581
0.365965 1.33408 0.786247
0.365968 1.33408 0.913752
0.366611 1.33344 1.0419
0.368495 1.33156 1.17506
0.374013 1.32603 1.32603
0.524939 0.368448 0.368448
0.522227 0.361978 0.522227
0.520949 0.359812 0.656627
0.520394 0.359082 0.785767
0.520394 0.359082 0.914236
0.520949 0.359812 1.04337
0.522227 0.361978 1.17777
0.524939 0.368448 1.33156
0.522227 0.522227 0.361978
0.519197 0.519197 0.519196
0.517756 0.517756 0.654995
0.517135 0.517135 0.785231
0.517135 0.517135 0.91477
0.517756 0.517756 1.04501
0.519197 0.519197 1.1808
0.522227 0.522227 1.33802
0.520949 0.656628 0.359812
0.517756 0.654995 0.517756
0.516231 0.654175 0.654175
0.515575 0.653798 0.784961
0.515575 0.653798 0.91504
0.516232 0.654175 1.04582
0.517757 0.654996 1.18224
0.52095 0.656628 1.34019
0.520395 0.785767 0.359082
0.517135 0.785232 0.517134
0.515576 0.784961 0.653797
0.514902 0.784837 0.784835
0.514904 0.784839 0.915167
0.51558 0.784964 1.0462
0.517139 0.785235 1.18287
0.520398 0.785769 1.34092
0.520397 0.914237 0.359082
0.517138 0.914772 0.517135
0.51558 0.915042 0.653798
0.51491 0.915171 0.784836
0.514921 0.915178 0.915168
0.515597 0.91505 1.0462
0.517155 0.91478 1.18287
0.52041 0.914244 1.34092
0.520964 1.04338 0.359812
0.517775 1.04501 0.517757
0.516256 1.04583 0.654178
0.515619 1.04621 0.784967
0.515703 1.04623 0.915045
0.516375 1.04586 1.04583
0.517895 1.04504 1.18224
0.521065 1.0434 1.34018
0.522333 1.17779 0.361981
0.519321 1.18082 0.5192
0.517896 1.18226 0.655005
0.517336 1.18288 0.785265
0.518221 1.18289 0.914799
0.518877 1.18227 1.04501
0.520291 1.18083 1.18079
0.523296 1.17779 1.33801
0.525972 1.33156 0.368456
0.523287 1.33803 0.522239
0.52204 1.34019 0.656638
0.521518 1.34093 0.785775
0.52158 1.34092 0.914237
0.522131 1.34018 1.04336
0.523377 1.33802 1.17776
0.52605 1.33155 1.33154
0.658099 0.366561 0.366561
0.656627 0.359812 0.520949
0.655889 0.357511 0.655889
0.655547 0.356733 0.785521
0.655547 0.356733 0.914479
0.655889 0.357511 1.04411
0.656627 0.359812 1.17905
0.658099 0.366561 1.33344
0.656627 0.520949 0.359812
0.654995 0.517756 0.517756
0.654175 0.516231 0.654175
0.653798 0.515575 0.784961
0.653798 0.515575 0.91504
0.654175 0.516232 1.04582
0.654996 0.517757 1.18224
0.656628 0.52095 1.34019
0.65589 0.65589 0.357511
0.654175 0.654175 0.516231
0.653312 0.653312 0.65331
0.652913 0.652913 0.784679
0.652915 0.652915 0.915325
0.653316 0.653316 1.04669
0.654179 0.654179 1.18377
0.655892 0.655892 1.34249
0.655551 0.785523 0.356733
0.653801 0.784964 0.515575
0.652916 0.784682 0.652912
0.652513 0.784548 0.784544
0.652521 0.784557 0.915457
0.652933 0.784694 1.04709
0.653815 0.784976 1.18442
0.655563 0.785533 1.34327
0.65556 0.914485 0.356733
0.653811 0.915047 0.515575
0.652932 0.915335 0.652913
0.652531 0.915473 0.784546
0.65257 0.915503 0.91546
0.652985 0.915374 1.04709
0.653867 0.915086 1.18442
0.655606 0.914518 1.34326
0.655945 1.04413 0.357515
0.654244 1.04585 0.516236
0.653395 1.04672 0.653323
0.653042 1.04713 0.784702
0.653264 1.04723 0.915346
0.653714 1.04684 1.04669
0.654559 1.04597 1.18376
0.656179 1.04424 1.34247
0.657036 1.17912 0.359826
0.655491 1.18231 0.517775
0.654726 1.18385 0.654229
0.654255 1.18451 0.785141
0.659968 1.18453 0.91519
0.660315 1.18387 1.04582
0.661024 1.18233 1.18217
0.66248 1.17913 1.34011
0.663676 1.33344 0.366631
0.662371 1.34019 0.521027
0.661749 1.34249 0.655948
0.661503 1.34326 0.785555
0.661749 1.3432 0.914477
0.662071 1.34241 1.04406
0.662688 1.34011 1.17897
0.663945 1.33337 1.33335
0.786247 0.365918 0.365917
0.785767 0.359082 0.520394
0.785521 0.356733 0.655547
0.785405 0.355929 0.785405
0.785405 0.355929 0.914594
0.785521 0.356734 1.04445
0.785767 0.359082 1.17961
0.786247 0.365918 1.33408
0.785767 0.520394 0.359082
0.785232 0.517135 0.517134
0.784961 0.515576 0.653797
0.784837 0.514902 0.784836
0.784839 0.514904 0.915167
0.784964 0.515578 1.0462
0.785235 0.517139 1.18287
0.785769 0.520397 1.34092
0.785522 0.655551 0.356733
0.784964 0.653801 0.515575
0.784682 0.652916 0.652912
0.784548 0.652512 0.784544
0.784555 0.652522 0.915457
0.784691 0.652931 1.04709
0.784974 0.653816 1.18442
0.785532 0.655563 1.34327
0.785414 0.785413 0.355929
0.784847 0.784847 0.5149
0.784554 0.784554 0.652506
0.78443 0.784429 0.78441
0.784456 0.784463 0.915595
0.7846 0.784602 1.0475
0.784885 0.784892 1.1851
0.78545 0.785455 1.34406
0.785437 0.914615 0.355931
0.784872 0.915193 0.514904
0.78459 0.915486 0.65251
0.784461 0.915637 0.784417
0.784574 0.915732 0.915601
0.784719 0.915603 1.0475
0.785002 0.915307 1.18509
0.785558 0.914717 1.34406
0.785641 1.0445 0.356739
0.785108 1.04627 0.51559
0.784846 1.04716 0.652941
0.784745 1.04758 0.784583
0.784533 1.0479 0.915496
0.784734 1.0475 1.0471
0.784993 1.0466 1.18441
0.78539 1.04481 1.34323
0.78634 1.17978 0.359119
0.785977 1.18306 0.517198
0.785855 1.18463 0.653986
0.784179 1.18532 0.785423
0.800223 1.18532 0.915503
0.799653 1.18465 1.0462
0.799691 1.18307 1.18263
0.799829 1.17979 1.34066
0.799497 1.33408 0.366156
0.799392 1.34091 0.520651
0.799369 1.34325 0.655735
0.799396 1.34404 0.785503
0.799876 1.34383 0.914577
0.799927 1.34302 1.0443
0.799938 1.34068 1.17934
0.799959 1.33387 1.33382
0.913752 0.365918 0.365917
0.914236 0.359082 0.520394
0.914479 0.356733 0.655547
0.914594 0.35593 0.785405
0.914595 0.355931 0.914594
0.91448 0.356734 1.04445
0.914237 0.359083 1.17961
0.913753 0.365919 1.33408
0.914237 0.520397 0.359082
0.914772 0.517138 0.517135
0.915042 0.515579 0.653798
0.915171 0.514908 0.784836
0.915176 0.514918 0.915168
0.915049 0.515594 1.0462
0.914779 0.517152 1.18287
0.914242 0.520408 1.34092
0.914485 0.65556 0.356733
0.915048 0.653811 0.515575
0.915334 0.652931 0.652913
0.915471 0.65253 0.784545
0.915491 0.652576 0.915459
0.915362 0.652991 1.04709
0.915075 0.65387 1.18442
0.914508 0.655612 1.34326
0.914615 0.785437 0.355931
0.915193 0.784871 0.514903
0.915485 0.78459 0.65251
0.915637 0.784466 0.784418
0.915702 0.784597 0.915602
0.915576 0.784746 1.0475
0.915277 0.785024 1.18509
0.91469 0.785574 1.34406
0.914662 0.914662 0.355934
0.915246 0.915246 0.514911
0.91555 0.915551 0.652519
0.915694 0.915693 0.784431
0.916023 0.915982 0.915612
0.915892 0.915856 1.0475
0.915581 0.915542 1.18508
0.91499 0.914935 1.34405
0.914713 1.04459 0.356752
0.915312 1.04636 0.515615
0.91563 1.04728 0.652968
0.915839 1.04764 0.784574
0.914152 1.04844 0.915501
0.914155 1.04801 1.04713
0.913859 1.04709 1.18442
0.913135 1.04528 1.3432
0.91466 1.17997 0.359171
0.91543 1.18326 0.517329
0.916117 1.18486 0.654384
0.911244 1.18556 0.786379
0.941772 1.18546 0.915479
0.939296 1.18482 1.04624
0.938674 1.18322 1.18235
0.937519 1.1799 1.3402
0.935379 1.33405 0.366569
0.93646 1.34086 0.521004
0.937038 1.34322 0.655967
0.937293 1.34401 0.785601
0.938011 1.34346 0.914542
0.937801 1.34264 1.04412
0.937195 1.34032 1.179
0.935964 1.33356 1.33337
1.0419 0.366562 0.366561
1.04337 0.359813 0.520949
1.04411 0.357514 0.655889
1.04445 0.356736 0.785521
1.04445 0.356739 0.914479
1.04411 0.35752 1.04411
1.04338 0.35982 1.17905
1.0419 0.366567 1.33344
1.04338 0.520964 0.359812
1.04501 0.517775 0.517757
1.04583 0.516254 0.654177
1.04622 0.51561 0.784964
1.04623 0.515654 0.915043
1.04585 0.516319 1.04583
1.04503 0.51784 1.18224
1.04339 0.52102 1.34018
1.04413 0.655945 0.357514
1.04585 0.654242 0.516236
1.04672 0.653389 0.653319
1.04712 0.653012 0.784691
1.04718 0.653216 0.915336
1.04679 0.653632 1.04669
1.04592 0.654482 1.18376
1.04419 0.656159 1.34248
1.0445 0.78564 0.35674
1.04627 0.785104 0.515588
1.04716 0.784836 0.65293
1.04758 0.784711 0.784574
1.04772 0.785222 0.915483
1.04733 0.785365 1.04709
1.04643 0.785619 1.18441
1.04465 0.786119 1.34324
1.04459 0.914711 0.356753
1.04637 0.915306 0.515605
1.04727 0.915617 0.652952
1.04766 0.915699 0.78461
1.04854 0.91667 0.915506
1.04811 0.916499 1.04708
1.04719 0.916168 1.18438
1.0454 0.915532 1.34323
1.04456 1.04456 0.357563
1.04633 1.04632 0.516337
1.04725 1.04725 0.653392
1.04802 1.04746 0.784654
1.0439 1.04936 0.915372
1.04392 1.04876 1.04674
1.04306 1.04783 1.18378
1.04126 1.04601 1.3424
1.04365 1.18 0.360005
1.04558 1.18326 0.518423
1.04745 1.18482 0.656194
1.03751 1.1856 0.788963
1.08658 1.18428 0.914271
1.081 1.18381 1.04555
1.07981 1.18222 1.18138
1.07722 1.1789 1.33828
1.07304 1.33317 0.368265
1.07543 1.33989 0.5222
1.07666 1.34216 0.656693
1.07708 1.34313 0.785866
1.07812 1.34174 0.914395
1.07776 1.34102 1.04352
1.07651 1.3388 1.17787
1.07387 1.33222 1.33159
1.17506 0.368453 0.368448
1.17777 0.361985 0.522228
1.17905 0.359821 0.656628
1.17961 0.359097 0.785769
1.17961 0.359117 0.914237
1.17906 0.359852 1.04337
1.17778 0.362015 1.17777
1.17507 0.368482 1.33155
1.17779 0.522333 0.361981
1.18082 0.519322 0.5192
1.18226 0.517896 0.655004
1.18289 0.517323 0.785251
1.18294 0.517639 0.914786
1.18232 0.518304 1.04501
1.18088 0.519726 1.1808
1.17784 0.522687 1.33801
1.17912 0.657037 0.359827
1.18232 0.65549 0.517775
1.18385 0.65471 0.654208
1.18452 0.65436 0.785021
1.18469 0.655389 0.915092
1.18404 0.655838 1.04583
1.1825 0.656609 1.18221
1.17929 0.65801 1.34013
1.17978 0.786341 0.35912
1.18306 0.785967 0.517187
1.18463 0.785766 0.653876
1.18532 0.785517 0.78495
1.18568 0.787332 0.915266
1.18501 0.787485 1.04622
1.18342 0.787687 1.1828
1.18012 0.7879 1.3408
1.17997 0.914658 0.359173
1.18327 0.915394 0.51724
1.18488 0.915774 0.65395
1.18534 0.915639 0.785042
1.1877 0.919007 0.915331
1.18686 0.918902 1.04624
1.18519 0.918527 1.18275
1.18183 0.91763 1.34064
1.18001 1.04364 0.360031
1.18331 1.0455 0.518084
1.18489 1.04652 0.654298
1.18677 1.04668 0.785007
1.17935 1.05184 0.915358
1.17996 1.05192 1.04597
1.17835 1.05091 1.18218
1.17529 1.04884 1.34014
1.17848 1.17842 0.362767
1.18193 1.18164 0.522339
1.18585 1.18321 0.662822
1.1683 1.18493 0.796531
1.23431 1.17756 0.90908
1.23111 1.18311 1.04183
1.22953 1.18129 1.1796
1.22446 1.17811 1.3329
1.2227 1.33258 0.373364
1.22763 1.33911 0.524832
1.22988 1.34073 0.658055
1.23035 1.34198 0.786522
1.23208 1.33864 0.914339
1.23355 1.33699 1.04246
1.23153 1.33505 1.17553
1.22602 1.32898 1.32618
1.32603 0.374007 0.373967
1.33156 0.368488 0.52494
1.33344 0.366607 0.658103
1.33408 0.365987 0.786258
1.33409 0.366169 0.913762
1.33344 0.366824 1.0419
1.33156 0.368701 1.17506
1.32604 0.374222 1.32603
1.33156 0.525973 0.368457
1.33803 0.523293 0.522246
1.34019 0.522065 0.656674
1.34093 0.521544 0.785891
1.34095 0.525008 0.914343
1.34022 0.525556 1.04337
1.33805 0.526733 1.17772
1.33158 0.52934 1.33151
1.33344 0.66368 0.366634
1.34019 0.662399 0.521063
1.3425 0.661873 0.656115
1.34327 0.660333 0.78607
1.34327 0.674851 0.914763
1.34249 0.674491 1.0441
1.34019 0.674916 1.17881
1.33345 0.675872 1.33315
1.33408 0.799508 0.366168
1.34091 0.79947 0.520801
1.34325 0.799839 0.656314
1.34407 0.794867 0.787093
1.344 0.82592 0.914705
1.34322 0.823324 1.04437
1.34086 0.823037 1.17896
1.33405 0.822478 1.33323
1.33405 0.935409 0.366624
1.34087 0.936644 0.521584
1.34322 0.938333 0.657903
1.34407 0.928343 0.789495
1.34341 0.976609 0.913555
1.3427 0.971329 1.04387
1.34035 0.970462 1.17835
1.33354 0.968359 1.33187
1.33319 1.07312 0.368645
1.33992 1.07592 0.524648
1.34217 1.07986 0.663065
1.34256 1.06447 0.794863
1.3555 1.1158 0.91244
1.35418 1.12073 1.04176
1.35142 1.1191 1.17706
1.3437 1.11483 1.32735
1.33273 1.22271 0.377339
1.33948 1.22744 0.556508
1.34106 1.22828 0.736938
1.35794 1.2542 0.895453
VERTICES 500 1000
1 0
1 1
1 2
1 3
1 4
1 5
1 6
1 7
1 8
1 9
1 10
1 11
1 12
1 13
1 14
1 15
1 16
1 17
1 18
1 19
1 20
1 21
1 22
1 23
1 24
1 25
1 26
1 27
1 28
1 29
1 30
1 31
1 32
1 33
1 34
1 35
1 36
1 37
1 38
1 39
1 40
1 41
1 42
1 43
1 44
1 45
1 46
1 47
1 48
1 49
1 50
1 51
1 52
1 53
1 54
1 55
1 56
1 57
1 58
1 59
1 60
1 61
1 62
1 63
1 64
1 65
1 66
1 67
1 68
1 69
1 70
1 71
1 72
1 73
1 74
1 75
1 76
1 77
1 78
1 79
1 80
1 81
1 82
1 83
1 84
1 85
1 86
1 87
1 88
1 89
1 90
1 91
1 92
1 93
1 94
1 95
1 96
1 97
1 98
1 99
1 100
1 101
1 102
1 103
1 104
1 105
1 106
1 107
1 108
1 109
1 110
1 111
1 112
1 113
1 114
1 115
1 116
1 117
1 118
1 119
1 120
1 121
1 122
1 123
1 124
1 125
1 126
1 127
1 128
1 129
1 130
1 131
1 132
1 133
1 134
1 135
1 136
1 137
1 138
1 139
1 140
1 141
1 142
1 143
1 144
1 145
1 146
1 147
1 148
1 149
1 150
1 151
1 152
1 153
1 154
1 155
1 156
1 157
1 158
1 159
1 160
1 161
1 162
1 163
1 164
1 165
1 166
1 167
1 168
1 169
1 170
1 171
1 172
1 173
1 174
1 175
1 176
1 177
1 178
1 179
1 180
1 181
1 182
1 183
1 184
1 185
1 186
1 187
1 188
1 189
1 190
1 191
1 192
1 193
1 194
1 195
1 196
1 197
1 198
1 199
1 200
1 201
1 202
1 203
1 204
1 205
1 206
1 207
1 208
1 209
1 210
1 211
1 212
1 213
1 214
1 215
1 216
1 217
1 218
1 219
1 220
1 221
1 222
1 223
1 224
1 225
1 226
1 227
1 228
1 229
1 230
1 231
1 232
1 233
1 234
1 235
1 236
1 237
1 238
1 239
1 240
1 241
1 242
1 243
1 244
1 245
1 246
1 247
1 248
1 249
1 250
1 251
1 252
1 253
1 254
1 255
1 256
1 257
1 258
1 259
1 260
1 261
1 262
1 263
1 264
1 265
1 266
1 267
1 268
1 269
1 270
1 271
1 272
1 273
1 274
1 275
1 276
1 277
1 278
1 279
1 280
1 281
1 282
1 283
1 284
1 285
1 286
1 287
1 288
1 289
1 290
1 291
1 292
1 293
1 294
1 295
1 296
1 297
1 298
1 299
1 300
1 301
1 302
1 303
1 304
1 305
1 306
1 307
1 308
1 309
1 310
1 311
1 312
1 313
1 314
1 315
1 316
1 317
1 318
1 319
1 320
1 321
1 322
1 323
1 324
1 325
1 326
1 327
1 328
1 329
1 330
1 331
1 332
1 333
1 334
1 335
1 336
1 337
1 338
1 339
1 340
1 341
1 342
1 343
1 344
1 345
1 346
1 347
1 348
1 349
1 350
1 351
1 352
1 353
1 354
1 355
1 356
1 357
1 358
1 359
1 360
1 361
1 362
1 363
1 364
1 365
1 366
1 367
1 368
1 369
1 370
1 371
1 372
1 373
1 374
1 375
1 376
1 377
1 378
1 379
1 380
1 381
1 382
1 383
1 384
1 385
1 386
1 387
1 388
1 389
1 390
1 391
1 392
1 393
1 394
1 395
1 396
1 397
1 398
1 399
1 400
1 401
1 402
1 403
1 404
1 405
1 406
1 407
1 408
1 409
1 410
1 411
1 412
1 413
1 414
1 415
1 416
1 417
1 418
1 419
1 420
1 421
1 422
1 423
1 424
1 425
1 426
1 427
1 428
1 429
1 430
1 431
1 432
1 433
1 434
1 435
1 436
1 437
1 438
1 439
1 440
1 441
1 442
1 443
1 444
1 445
1 446
1 447
1 448
1 449
1 450
1 451
1 452
1 453
1 454
1 455
1 456
1 457
1 458
1 459
1 460
1 461
1 462
1 463
1 464
1 465
1 466
1 467
1 468
1 469
1 470
1 471
1 472
1 473
1 474
1 475
1 476
1 477
1 478
1 479
1 480
1 481
1 482
1 483
1 484
1 485
1 486
1 487
1 488
1 489
1 490
1 491
1 492
1 493
1 494
1 495
1 496
1 497
1 498
1 499
POINT_DATA 500
VECTORS velocity float
-0.163845 -0.163845 -0.163845
-0.170237 -0.170236 -0.128283
-0.173422 -0.173423 -0.0859725
-0.174681 -0.174681 -0.0303051
-0.174681 -0.174681 0.0303058
-0.173423 -0.173423 0.0859679
-0.170237 -0.170236 0.128281
-0.163845 -0.163845 0.163846
-0.170236 -0.128283 -0.170236
-0.177786 -0.131815 -0.131815
-0.181418 -0.133947 -0.088045
-0.182823 -0.134993 -0.0309875
-0.182823 -0.134994 0.030988
-0.181418 -0.133947 0.0880499
-0.177785 -0.131815 0.131815
-0.170236 -0.128283 0.170241
-0.173422 -0.0859726 -0.173423
-0.181418 -0.0880445 -0.133947
-0.185293 -0.0892907 -0.0892913
-0.186788 -0.0899162 -0.0313918
-0.186788 -0.0899161 0.0313927
-0.185292 -0.0892906 0.0892874
-0.181419 -0.088044 0.133947
-0.173422 -0.0859722 0.17342
-0.17468 -0.0303046 -0.174681
-0.182823 -0.0309869 -0.134993
-0.186788 -0.0313916 -0.0899163
-0.188336 -0.0316007 -0.0316014
-0.188336 -0.0315994 0.0316001
-0.186786 -0.0313903 0.0899144
-0.182821 -0.0309865 0.134994
-0.174679 -0.0303036 0.17468
-0.174679 0.0303067 -0.174681
-0.182822 0.0309879 -0.134993
-0.186787 0.0313935 -0.089916
-0.188332 0.0316019 -0.0316007
-0.188327 0.0316041 0.0316003
-0.186781 0.031397 0.0899144
-0.182816 0.030992 0.134994
-0.174673 0.0303106 0.174679
-0.173417 0.0859698 -0.173422
-0.181411 0.088053 -0.133947
-0.185282 0.0892912 -0.0892893
-0.186772 0.0899189 -0.0313895
-0.186748 0.089924 0.0313955
-0.185244 0.0892994 0.0892879
-0.181373 0.0880617 0.133945
-0.173381 0.0859774 0.173418
-0.170204 0.128287 -0.170235
-0.177751 0.131821 -0.131814
-0.181377 0.133954 -0.0880405
-0.182757 0.135003 -0.0309778
-0.1826 0.135005 0.0309973
-0.18118 0.133957 0.0880492
-0.177557 0.131824 0.131811
-0.169995 0.12829 0.17024
-0.163594 0.163854 -0.163844
-0.169995 0.170249 -0.12828
-0.17317 0.173428 -0.0859698
-0.174412 0.174686 -0.0303012
-0.174391 0.174682 0.0303076
-0.173137 0.17342 0.0859654
-0.169961 0.170241 0.128278
-0.163563 0.163846 0.163843
-0.128284 -0.170236 -0.170236
-0.131815 -0.177786 -0.131815
-0.133947 -0.181418 -0.088045
-0.134994 -0.182823 -0.0309875
-0.134993 -0.182823 0.030988
-0.133947 -0.181418 0.0880499
-0.131815 -0.177786 0.131815
-0.128283 -0.170236 0.170241
-0.131815 -0.131815 -0.177786
-0.13569 -0.13569 -0.135691
-0.138064 -0.138064 -0.0903019
-0.139222 -0.139222 -0.0317323
-0.139222 -0.139222 0.0317329
-0.138064 -0.138064 0.0903059
-0.135689 -0.13569 0.13569
-0.131815 -0.131815 0.177787
-0.133947 -0.0880442 -0.181418
-0.138064 -0.0903007 -0.138064
-0.14058 -0.0916637 -0.0916646
-0.1418 -0.0923503 -0.0321769
-0.141798 -0.0923484 0.0321767
-0.140576 -0.0916608 0.0916632
-0.138061 -0.0902973 0.138064
-0.133944 -0.0880409 0.181415
-0.134989 -0.0309856 -0.182824
-0.139219 -0.0317297 -0.139223
-0.141797 -0.0321735 -0.0923519
-0.143047 -0.0323919 -0.0323978
-0.143039 -0.0323841 0.0323987
-0.141782 -0.0321618 0.092359
-0.139206 -0.0317176 0.139224
-0.134978 -0.0309777 0.182825
-0.134981 0.0309934 -0.182823
-0.139209 0.0317398 -0.139221
-0.141782 0.0321854 -0.0923498
-0.143024 0.0324149 -0.0323942
-0.142988 0.032442 0.032402
-0.141726 0.0322184 0.0923592
-0.139151 0.0317732 0.139222
-0.134934 0.0310261 0.182825
-0.133889 0.0880707 -0.181416
-0.137991 0.0903291 -0.13806
-0.14049 0.0916903 -0.0916541
-0.141647 0.0923985 -0.0321508
-0.141337 0.0924888 0.0322009
-0.140055 0.0918075 0.0916661
-0.137559 0.0904427 0.138052
-0.133527 0.0881755 0.181398
-0.131372 0.131881 -0.177774
-0.135175 0.135764 -0.135675
-0.137499 0.138142 -0.0902606
-0.138523 0.139307 -0.0315835
-0.134309 0.139347 0.0318643
-0.133059 0.138181 0.0903115
-0.130753 0.135802 0.135646
-0.126885 0.131917 0.177757
-0.123437 0.170289 -0.170204
-0.126943 0.177838 -0.131765
-0.128987 0.181467 -0.088006
-0.129927 0.182869 -0.0309609
-0.129679 0.182814 0.0309954
-0.128644 0.181384 0.0880237
-0.126605 0.17776 0.131761
-0.123139 0.170216 0.1702
-0.0859724 -0.173422 -0.173423
-0.0880447 -0.181418 -0.133947
-0.0892909 -0.185293 -0.0892912
-0.0899161 -0.186788 -0.0313918
-0.0899161 -0.186788 0.0313927
-0.0892904 -0.185293 0.0892876
-0.0880439 -0.181418 0.133947
-0.0859723 -0.173422 0.17342
-0.0880443 -0.133947 -0.181418
-0.0903008 -0.138064 -0.138064
-0.0916638 -0.14058 -0.0916647
-0.0923497 -0.1418 -0.0321769
-0.0923481 -0.141798 0.0321766
-0.0916608 -0.140576 0.0916627
-0.0902974 -0.13806 0.138063
-0.0880409 -0.133944 0.181414
-0.0892886 -0.0892883 -0.185293
-0.0916609 -0.0916611 -0.140582
-0.0930955 -0.0930954 -0.093099
-0.0938162 -0.0938165 -0.0326333
-0.0938073 -0.0938063 0.0326395
-0.0930821 -0.0930799 0.0931021
-0.0916485 -0.0916474 0.14058
-0.0892773 -0.089276 0.18529
-0.0899039 -0.0313847 -0.186788
-0.0923365 -0.0321655 -0.141801
-0.0938094 -0.03262 -0.09382
-0.09453 -0.0328541 -0.0328721
-0.0944995 -0.0328199 0.032876
-0.0937488 -0.0325743 0.0938261
-0.0922901 -0.0321157 0.141799
-0.0898589 -0.0313419 0.186788
-0.089874 0.0314165 -0.186788
-0.0923048 0.0322033 -0.141798
-0.0937613 0.0326734 -0.0938165
-0.0944931 0.0329259 -0.0328642
-0.094376 0.0330375 0.0328825
-0.0936259 0.0328132 0.0938259
-0.0921672 0.0323365 0.141793
-0.0897484 0.0315383 0.186777
-0.0891292 0.0893608 -0.185282
-0.0914726 0.0917468 -0.140563
-0.0928807 0.0931977 -0.0930643
-0.0935584 0.0939342 -0.0325706
-0.0934453 0.0943274 0.0326978
-0.0926316 0.0936317 0.0931151
-0.0912495 0.0921702 0.140552
-0.0891529 0.089755 0.185237
-0.0870294 0.134176 -0.181368
-0.0890342 0.138312 -0.137989
-0.0902399 0.140849 -0.0914703
-0.0924857 0.142077 -0.0315496
-0.0726268 0.142147 0.0326631
-0.0725923 0.140923 0.0916882
-0.0714549 0.138384 0.13781
-0.0694124 0.13424 0.18113
-0.0681164 0.173451 -0.173155
-0.0699558 0.181432 -0.133672
-0.0709705 0.185312 -0.0891028
-0.0714242 0.186781 -0.0312933
-0.0707657 0.186537 0.0313908
-0.0701959 0.185017 0.0891435
-0.0691986 0.181153 0.133654
-0.0674788 0.173181 0.173119
-0.0303047 -0.17468 -0.174681
-0.0309871 -0.182823 -0.134993
-0.0313917 -0.186788 -0.0899163
-0.0316003 -0.188336 -0.0316016
-0.0315988 -0.188336 0.0316001
-0.0313903 -0.186786 0.0899144
-0.0309863 -0.182822 0.134994
-0.0303035 -0.17468 0.174679
-0.0309857 -0.13499 -0.182824
-0.0317298 -0.139219 -0.139223
-0.0321737 -0.141797 -0.0923519
-0.0323923 -0.143047 -0.0323973
-0.0323849 -0.143039 0.0323987
-0.0321628 -0.141785 0.0923589
-0.0317183 -0.139206 0.139224
-0.0309797 -0.13498 0.182827
-0.0313851 -0.0899044 -0.186788
-0.0321655 -0.0923367 -0.141801
-0.0326204 -0.0938087 -0.0938201
-0.0328562 -0.0945311 -0.0328726
-0.032832 -0.0944933 0.0328756
-0.0325895 -0.0937492 0.0938258
-0.0321281 -0.0922829 0.141799
-0.0313524 -0.0898545 0.186787
-0.0315767 -0.0315769 -0.188336
-0.0323632 -0.0323637 -0.143052
-0.0328416 -0.0328421 -0.0945558
-0.03306 -0.0330603 -0.0331077
-0.0329743 -0.0329407 0.0331228
-0.0327155 -0.0326918 0.0945666
-0.0322499 -0.0322179 0.143044
-0.0314687 -0.0314419 0.188324
-0.0315122 0.0316642 -0.18833
-0.0322987 0.0324759 -0.143045
-0.032757 0.0329607 -0.0945443
-0.033002 0.033218 -0.0330957
-0.0326329 0.0335302 0.0331346
-0.0323891 0.0332974 0.094568
-0.0319344 0.0328035 0.143036
-0.0311393 0.0319705 0.188315
-0.0311103 0.0900756 -0.186771
-0.0318446 0.0925389 -0.141758
-0.0322739 0.0940205 -0.0937592
-0.0325342 0.0947087 -0.0328435
-0.0351054 0.0957628 0.032925
-0.0347788 0.0950042 0.0938652
-0.0343648 0.0934921 0.141783
-0.0339277 0.0909992 0.186707
-0.0304986 0.135457 -0.182727
-0.0308723 0.139724 -0.139011
-0.0307991 0.142318 -0.0917509
-0.0390753 0.143625 -0.030605
0.00371559 0.143475 0.0329374
0.000352158 0.142247 0.0924496
0.000421135 0.139638 0.13862
0.000745979 0.135345 0.182077
-0.000727714 0.174639 -0.17398
-0.000947665 0.18276 -0.134286
-0.00100245 0.186706 -0.0894476
-0.00108015 0.188273 -0.0313853
-0.000130508 0.187684 0.0315571
-9.03952e-05 0.186115 0.0895308
-0.000104325 0.182194 0.134283
-6.18634e-05 0.174115 0.173922
0.0303074 -0.174679 -0.174681
0.0309887 -0.182822 -0.134993
0.0313941 -0.186787 -0.089916
0.0316018 -0.188332 -0.0316009
0.0316036 -0.188329 0.0316003
0.0313968 -0.186782 0.0899142
0.0309919 -0.182818 0.134994
0.0303109 -0.174674 0.174679
0.0309934 -0.134981 -0.182823
0.0317396 -0.139209 -0.139221
0.0321852 -0.141784 -0.0923501
0.0324148 -0.143029 -0.0323946
0.0324332 -0.142992 0.0324013
0.0322098 -0.141731 0.0923592
0.0317633 -0.139157 0.139223
0.0310169 -0.134935 0.182827
0.0314158 -0.0898738 -0.186788
0.0322034 -0.092306 -0.141799
0.0326725 -0.0937615 -0.0938177
0.0329219 -0.0944828 -0.0328647
0.0329956 -0.0943205 0.0328818
0.0327683 -0.0935645 0.0938245
0.032294 -0.0921153 0.141794
0.0314988 -0.0896993 0.186779
0.0316653 -0.031512 -0.188331
0.0324747 -0.0322987 -0.143046
0.0329588 -0.0327544 -0.0945429
0.0332244 -0.0329921 -0.0330917
0.0334118 -0.0326077 0.03314
0.033187 -0.0323507 0.0945671
0.0326849 -0.0319064 0.143034
0.0318546 -0.0311476 0.18831
0.0317726 0.0317728 -0.188324
0.032594 0.0325942 -0.143031
0.0330959 0.033102 -0.0945285
0.0333088 0.0332904 -0.0330677
0.0344483 0.0340877 0.0331589
0.0341657 0.0338203 0.0945562
0.0336423 0.0332957 0.143012
0.0328491 0.0324487 0.188301
0.0319435 0.0902318 -0.186745
0.0327804 0.0927162 -0.141702
0.0332993 0.0942456 -0.0937641
0.0339629 0.0947074 -0.0329819
0.0268054 0.096952 0.032868
0.0270747 0.0960031 0.0938977
0.0265866 0.0944601 0.14187
0.0255714 0.0919685 0.186729
0.0307329 0.135681 -0.182642
0.0319016 0.139938 -0.138611
0.0338814 0.142567 -0.0906674
0.0160287 0.143891 -0.0282088
0.082352 0.143007 0.0318554
0.0735818 0.141938 0.0923574
0.0727457 0.139287 0.138301
0.0713892 0.134918 0.181255
0.0667859 0.174529 -0.173238
0.0681741 0.182614 -0.133674
0.0691104 0.186593 -0.0890785
0.0693426 0.188291 -0.0312662
0.0704623 0.187071 0.0314765
0.0699915 0.185557 0.0892314
0.0689921 0.181666 0.133734
0.0673228 0.173656 0.17314
0.0859694 -0.173417 -0.173422
0.0880525 -0.181411 -0.133947
0.0892907 -0.185282 -0.0892894
0.0899195 -0.186774 -0.0313905
0.0899235 -0.186761 0.0313945
0.0893021 -0.185259 0.0892878
0.0880625 -0.181388 0.133946
0.0859779 -0.173396 0.173419
0.0880709 -0.13389 -0.181416
0.0903297 -0.137993 -0.138061
0.0916905 -0.140497 -0.091658
0.092399 -0.141688 -0.0321629
0.0924466 -0.141511 0.0321877
0.0917669 -0.140264 0.0916645
0.0904041 -0.137762 0.138055
0.0881341 -0.133681 0.181404
0.0893614 -0.0891298 -0.185283
0.091748 -0.0914781 -0.140567
0.0931967 -0.0928928 -0.0930773
0.0939324 -0.0935965 -0.032598
0.0941189 -0.0929424 0.0326741
0.0934057 -0.0922015 0.0931037
0.0919527 -0.0908055 0.14056
0.0895485 -0.0885011 0.185266
0.0900772 -0.0311129 -0.186771
0.0925374 -0.0318556 -0.141771
0.094016 -0.032291 -0.0937776
0.0947684 -0.0326145 -0.0328012
0.095107 -0.0312565 0.0329379
0.0943875 -0.0310917 0.0938271
0.0928763 -0.0306922 0.141753
0.0903946 -0.0299877 0.186719
0.090232 0.0319365 -0.186746
0.0927099 0.0327653 -0.141737
0.0942148 0.0332992 -0.0937461
0.0947358 0.0332083 -0.0327262
0.0974808 0.0355613 0.0329819
0.0965576 0.0350336 0.0938037
0.0949908 0.0344741 0.141695
0.0925387 0.0336307 0.186707
0.0902388 0.0902309 -0.185185
0.092691 0.0926905 -0.140386
0.094164 0.0942864 -0.0931727
0.0966151 0.0943927 -0.0329833
0.0846929 0.0984978 0.0325628
0.0855685 0.096817 0.0931505
0.0840895 0.0952796 0.140756
0.0817184 0.0928502 0.18536
0.0878624 0.13539 -0.181069
0.0906147 0.139516 -0.13603
0.0953116 0.142038 -0.0863721
0.0679448 0.143563 -0.0234614
0.146132 0.139165 0.0296551
0.132708 0.138651 0.0896668
0.13143 0.136012 0.136846
0.12828 0.131676 0.178206
0.122218 0.172498 -0.170438
0.125287 0.180426 -0.131738
0.127368 0.18422 -0.0879873
0.127779 0.186574 -0.0309284
0.129014 0.184111 0.0311968
0.128467 0.183031 0.0882468
0.126383 0.179308 0.131993
0.12296 0.171553 0.17029
0.128288 -0.170204 -0.170235
0.131821 -0.177751 -0.131813
0.133955 -0.181376 -0.0880395
0.135008 -0.182757 -0.0309795
0.135026 -0.182665 0.0309965
0.13398 -0.181241 0.0880506
0.131846 -0.177617 0.131812
0.128312 -0.170078 0.170236
0.131881 -0.131372 -0.177774
0.135765 -0.135174 -0.135674
0.138144 -0.137508 -0.0902713
0.139328 -0.138571 -0.0316651
0.139487 -0.137435 0.0317884
0.138339 -0.136164 0.0903139
0.135951 -0.133843 0.135665
0.132055 -0.130187 0.177744
0.134176 -0.0870284 -0.181368
0.138316 -0.0890433 -0.138001
0.140855 -0.0903223 -0.0915761
0.142081 -0.09124 -0.0320263
0.142597 -0.088668 0.0323034
0.141384 -0.087991 0.0916881
0.138827 -0.0867349 0.137983
0.134665 -0.0849796 0.181263
0.13546 -0.0304986 -0.182728
0.139736 -0.0309229 -0.139088
0.142342 -0.0312189 -0.0921858
0.14351 -0.032086 -0.0321848
0.144382 -0.0278162 0.0325992
0.143083 -0.0277974 0.0923998
0.140426 -0.0274744 0.139111
0.136186 -0.0271795 0.182558
0.135687 0.0307203 -0.182656
0.139972 0.0317738 -0.139024
0.142665 0.0324696 -0.092096
0.142846 0.0318655 -0.0320393
0.148868 0.0396905 0.0326682
0.146795 0.0393069 0.0924116
0.144034 0.0386461 0.13903
0.139799 0.0374292 0.182259
0.135426 0.0878247 -0.181055
0.139632 0.0904121 -0.137779
0.142019 0.0922329 -0.0921748
0.147223 0.0929228 -0.0325748
0.130534 0.0990032 0.0324899
0.13362 0.100339 0.0920376
0.13078 0.0985856 0.138103
0.127142 0.0959026 0.181998
0.132894 0.132732 -0.176203
0.137433 0.136821 -0.127374
0.146135 0.139349 -0.0719792
0.108441 0.143054 -0.0169675
0.162814 0.124554 0.0193002
0.156427 0.140349 0.0794926
0.154571 0.137011 0.132874
0.14894 0.133652 0.173021
0.157849 0.172637 -0.1644
0.163959 0.17995 -0.128755
0.168627 0.181686 -0.0863889
0.168489 0.18514 -0.0298472
0.168118 0.182523 0.0313064
0.173711 0.178756 0.0867272
0.170124 0.17558 0.129101
0.163732 0.168318 0.164167
0.163854 -0.163593 -0.163844
0.170249 -0.169992 -0.128277
0.173429 -0.173158 -0.0859536
0.174691 -0.174334 -0.0302601
0.174721 -0.173443 0.0303516
0.173463 -0.17215 0.0859704
0.170281 -0.169004 0.128266
0.163884 -0.162559 0.163843
0.17029 -0.123434 -0.170202
0.177839 -0.126919 -0.131731
0.181468 -0.128908 -0.0878802
0.182878 -0.130525 -0.0305702
0.182985 -0.118047 0.0313407
0.181565 -0.117368 0.0880782
0.177927 -0.115491 0.131659
0.170375 -0.112049 0.170075
0.173451 -0.0681058 -0.173144
0.181436 -0.0698617 -0.133516
0.185316 -0.0705044 -0.0885554
0.186804 -0.0777293 -0.0297307
0.186757 -0.0395943 0.0317727
0.185261 -0.0425303 0.0893129
0.181383 -0.0418564 0.133279
0.173413 -0.0404674 0.17253
0.174643 -0.000693395 -0.173931
0.182769 -0.000730442 -0.133716