# vtk DataFile Version 3.0
Molecular Dynamics Particle Data
ASCII
DATASET POLYDATA
POINTS 50 float
0.379539 0.379068 0.378854
0.375091 0.374187 0.559074
0.383501 0.374066 0.741443
0.388681 0.37894 0.921123
0.383411 0.559075 0.374033
0.377769 0.557645 0.557452
0.378132 0.557454 0.742623
0.383865 0.558846 0.925958
0.383849 0.741225 0.374054
0.378205 0.742645 0.557421
0.378224 0.742595 0.742585
0.383874 0.741161 0.925945
0.388705 0.921075 0.378938
0.383873 0.925955 0.558843
0.383875 0.925947 0.741159
0.388707 0.921062 0.921062
0.560215 0.375489 0.374305
0.558257 0.369853 0.559012
0.599699 0.369648 0.74314
0.599948 0.37517 0.925202
0.598751 0.558342 0.369529
0.59862 0.556842 0.556305
0.5997 0.55631 0.74397
0.599955 0.557765 0.930449
0.600004 0.742629 0.369618
0.599991 0.744184 0.55621
0.599992 0.743878 0.743827
0.6 0.742266 0.930386
0.599974 0.924927 0.375161
0.599978 0.930457 0.55775
0.6 0.930396 0.74226
0.6 0.924843 0.924839
0.746192 0.377058 0.376069
0.745839 0.372667 0.562222
0.812904 0.371716 0.743214
0.811357 0.378978 0.923253
0.80709 0.563527 0.372581
0.814835 0.560223 0.556408
0.81891 0.55926 0.744613
0.816114 0.558895 0.926464
0.816507 0.743432 0.374041
0.822158 0.74493 0.557464
0.821799 0.743023 0.742634
0.816121 0.741197 0.925985
0.811272 0.921821 0.378933
0.816103 0.926686 0.558864
0.81612 0.926082 0.74118
0.811292 0.921078 0.921071
0.926897 0.49186 0.417755
0.93412 0.493627 0.674723
VERTICES 50 100
1 0
1 1
1 2
1 3
1 4
1 5
1 6
1 7
1 8
1 9
1 10
1 11
1 12
1 13
1 14
1 15
1 16
1 17
1 18
1 19
1 20
1 21
1 22
1 23
1 24
1 25
1 26
1 27
1 28
1 29
1 30
1 31
1 32
1 33
1 34
1 35
1 36
1 37
1 38
1 39
1 40
1 41
1 42
1 43
1 44
1 45
1 46
1 47
1 48
1 49
POINT_DATA 50
VECTORS velocity float
-0.149031 -0.149702 -0.150083
-0.153909 -0.155077 -0.0550857
-0.138409 -0.155334 0.0559961
-0.132343 -0.149974 0.150103
-0.138572 -0.0550846 -0.155389
-0.145171 -0.0568601 -0.0572148
-0.144646 -0.0572102 0.0573387
-0.137929 -0.0555025 0.155377
-0.137944 0.0556301 -0.155355
-0.144533 0.0573836 -0.057262
-0.144511 0.0572936 0.0572754
-0.137915 0.0555129 0.155355
-0.132313 0.150005 -0.149978
-0.137917 0.155375 -0.0555067
-0.137915 0.155359 0.0555095
-0.132309 0.14998 0.149979
-0.0540979 -0.152863 -0.154897
-0.0579567 -0.15917 -0.0546544
0.000293625 -0.159813 0.0576476
-3.57856e-05 -0.153729 0.154374
-0.00136619 -0.0563539 -0.159959
-0.00157966 -0.0581303 -0.0585928
-0.000420475 -0.0585875 0.0589454
-3.86702e-05 -0.0568018 0.159973
4.45849e-05 0.0573923 -0.159863
3.3584e-05 0.0593024 -0.0587113
-2.73608e-05 0.058834 0.0587565
-1.23163e-05 0.0568411 0.15987
-3.68587e-05 0.153916 -0.153745
-3.4458e-05 0.160011 -0.0568178
-1.34282e-05 0.159891 0.0568319
-4.66383e-06 0.153751 0.153747
0.0648981 -0.151329 -0.152509
0.0634416 -0.15557 -0.0503301
0.132005 -0.160713 0.0571109
0.132428 -0.149898 0.1531
0.116399 -0.0450199 -0.15995
0.13218 -0.0537192 -0.060052
0.135742 -0.0520223 0.0627902
0.137904 -0.0554368 0.156234
0.13861 0.0584818 -0.155363
0.145186 0.0602371 -0.0571974
0.144559 0.0579595 0.0573216
0.137906 0.0555655 0.155411
0.132264 0.151389 -0.149983
0.137867 0.156722 -0.0554767
0.137904 0.155593 0.0555471
0.132307 0.150004 0.149994
0.165565 -0.0175887 -0.0913259
0.173453 -0.01094 0.0807147
VECTORS force float
-0.00536967 -0.00527675 -0.00535453
-0.00533208 -0.00498665 0.000584146
-0.00151047 -0.00509518 -0.000425325
-0.00143215 -0.00539277 0.00544809
-0.001497 0.000593162 -0.00510095
-0.00168044 0.000414734 0.000312571
-0.00172745 0.000315407 -0.000297344
-0.00157005 0.000487882 0.00510455
-0.00156297 -0.000457994 -0.00509877
-0.00171838 -0.000281262 0.000307379
-0.00172222 -0.000302667 -0.000305968
-0.0015695 -0.000486234 0.00509878
-0.0014395 0.00540739 -0.00539422
-0.00157052 0.00510905 0.000486962
-0.00156958 0.00510027 -0.000486385
-0.00143805 0.00539496 0.00539473
0.000421336 -0.00428668 -0.00488028
-0.000370941 -0.00406958 0.000787341
0.000285447 -0.00466843 -0.000829183
-2.3751e-06 -0.00496736 0.00508939
7.18224e-05 -0.000184592 -0.00463774
0.000132695 -0.000273862 0.000162026
-0.000101343 0.000169153 -0.000182434
-5.58868e-06 0.000361096 0.00469343
8.35354e-06 -0.000348151 -0.00467398
1.61402e-05 -0.000162818 0.000177758
-5.92033e-06 -0.000170771 -0.000177238
-1.89344e-06 -0.000357067 0.00467661
-5.3691e-06 0.00503077 -0.00497083
-5.20062e-06 0.00472473 0.000360833
-1.65013e-06 0.00468249 -0.000358422
-6.40475e-07 0.00497339 0.00497292
0.00286171 -0.00368123 -0.00449829
0.00243366 -0.00328403 0.00088245
-9.80945e-05 -0.00716126 -0.000877634
0.00149556 -0.00535846 0.0054728
-0.0192305 0.0101679 -0.0130448
-0.00279439 0.00070213 -0.000347692
-0.0153432 0.00903226 0.00922942
0.00157894 0.000477678 0.00548663
0.00178585 -0.000241431 -0.00509763
0.0018591 -0.000430464 0.000327103
0.00173504 -2.29143e-05 -0.000314381
0.00156686 -0.000470511 0.00511515
0.00141265 0.0057686 -0.00538725
0.00154534 0.00544539 0.000491709
0.00156567 0.00515765 -0.000477572
0.00143756 0.00539964 0.0053992
0.0247383 -0.0135693 0.00549294
0.0237251 -0.00892737 -0.00833601
SCALARS mass float 1
LOOKUP_TABLE default
1
1
1
1
1
1
1
1
1
1
1
1
1
1
1
1
1
1
1
1
1
1
1
1
1
1
1
1
1
1
1
1
1
1
1
1
1
1
1
1
1
1
1
1
1
1
1
1
1
1
