# vtk DataFile Version 3.0
Molecular Dynamics Particle Data
ASCII
DATASET POLYDATA
POINTS 2 float
-0.0336798 0 0
1.25614 0 0
VERTICES 2 4
1 0
1 1
POINT_DATA 2
VECTORS velocity float
-0.0666474 0 0
0.0666474 0 0
VECTORS force float
-0.62027 0 0
0.62027 0 0
SCALARS mass float 1
LOOKUP_TABLE default
10
10
