# vtk DataFile Version 3.0
Molecular Dynamics Particle Data
ASCII
DATASET POLYDATA
POINTS 200 float
0.378683 0.375336 0.375336
0.373362 0.370025 0.538744
0.372298 0.368911 0.7
0.373362 0.370025 0.861256
0.378683 0.375336 1.02466
0.373362 0.538744 0.370025
0.367131 0.536571 0.536571
0.365904 0.536021 0.7
0.367131 0.536571 0.863429
0.373362 0.538744 1.02997
0.372298 0.7 0.368911
0.365904 0.7 0.536021
0.364631 0.7 0.7
0.365904 0.7 0.86398
0.372298 0.7 1.03109
0.373362 0.861256 0.370025
0.367131 0.863429 0.536571
0.365904 0.86398 0.7
0.367131 0.863429 0.863429
0.373362 0.861256 1.02997
0.378683 1.02466 0.375336
0.373362 1.02997 0.538744
0.372298 1.03109 0.7
0.373362 1.02997 0.861256
0.378683 1.02466 1.02466
0.558752 0.37047 0.37047
0.557189 0.364315 0.536781
0.556818 0.363048 0.7
0.557189 0.364314 0.86322
0.558752 0.37047 1.02953
0.557189 0.536781 0.364315
0.555441 0.534376 0.534376
0.555013 0.533761 0.7
0.555441 0.534376 0.865625
0.557189 0.536781 1.03569
0.556818 0.7 0.363048
0.555013 0.7 0.533761
0.554576 0.7 0.7
0.555013 0.7 0.86624
0.556818 0.7 1.03695
0.557189 0.86322 0.364314
0.555441 0.865625 0.534376
0.555013 0.86624 0.7
0.555441 0.865625 0.865625
0.557189 0.86322 1.03569
0.558752 1.02953 0.37047
0.557189 1.03569 0.536781
0.556818 1.03695 0.7
0.557189 1.03569 0.86322
0.558752 1.02953 1.02953
0.74125 0.37047 0.37047
0.742811 0.364315 0.536781
0.743182 0.363048 0.7
0.742811 0.364314 0.86322
0.74125 0.37047 1.02953
0.742811 0.536781 0.364315
0.744557 0.534376 0.534376
0.744987 0.533761 0.7
0.744557 0.534376 0.865625
0.742811 0.536781 1.03569
0.743182 0.7 0.363048
0.744987 0.7 0.533761
0.745426 0.7 0.7
0.744987 0.7 0.86624
0.743182 0.7 1.03695
0.742811 0.86322 0.364314
0.744557 0.865625 0.534376
0.744987 0.86624 0.7
0.744557 0.865625 0.865625
0.742811 0.86322 1.03569
0.74125 1.02953 0.37047
0.742811 1.03569 0.536781
0.743182 1.03695 0.7
0.742811 1.03569 0.86322
0.741249 1.02953 1.02953
0.921317 0.375336 0.375336
0.926638 0.370025 0.538744
0.927703 0.368911 0.7
0.926638 0.370025 0.861256
0.921317 0.375336 1.02466
0.926638 0.538744 0.370025
0.932868 0.536571 0.536571
0.934097 0.536021 0.7
0.932868 0.536571 0.863429
0.926638 0.538744 1.02997
0.927703 0.7 0.368911
0.934097 0.7 0.536021
0.93537 0.7 0.7
0.934097 0.7 0.86398
0.927703 0.7 1.03109
0.926638 0.861256 0.370025
0.932868 0.863429 0.536571
0.934097 0.86398 0.7
0.932868 0.863429 0.863429
0.926638 0.861256 1.02997
0.921317 1.02466 0.375336
0.926638 1.02997 0.538744
0.927703 1.03109 0.7
0.926638 1.02997 0.861256
0.921317 1.02466 1.02466
1.87868 0.375336 0.375336
1.87336 0.370025 0.538744
1.8723 0.368911 0.7
1.87336 0.370025 0.861256
1.87868 0.375336 1.02466
1.87336 0.538744 0.370025
1.86713 0.536571 0.536571
1.86591 0.536021 0.7
1.86713 0.536571 0.863429
1.87336 0.538744 1.02997
1.8723 0.7 0.368911
1.86591 0.7 0.536021
1.86463 0.7 0.7
1.86591 0.7 0.86398
1.8723 0.7 1.03109
1.87336 0.861256 0.370025
1.86713 0.863429 0.536571
1.86591 0.86398 0.7
1.86713 0.863429 0.863429
1.87336 0.861256 1.02997
1.87868 1.02466 0.375336
1.87336 1.02997 0.538744
1.8723 1.03109 0.7
1.87336 1.02997 0.861256
1.87868 1.02466 1.02466
2.05876 0.37047 0.37047
2.05717 0.364314 0.536781
2.05681 0.363048 0.7
2.05717 0.364314 0.86322
2.05876 0.37047 1.02953
2.05717 0.536781 0.364314
2.05543 0.534376 0.534376
2.05502 0.533761 0.7
2.05543 0.534376 0.865625
2.05717 0.536781 1.03569
2.05681 0.7 0.363048
2.05502 0.7 0.533761
2.05457 0.7 0.7
2.05502 0.7 0.86624
2.05681 0.7 1.03695
2.05717 0.86322 0.364314
2.05543 0.865625 0.534376
2.05502 0.86624 0.7
2.05543 0.865625 0.865625
2.05717 0.86322 1.03569
2.05876 1.02953 0.37047
2.05717 1.03569 0.536781
2.05681 1.03695 0.7
2.05717 1.03569 0.86322
2.05876 1.02953 1.02953
2.24124 0.37047 0.37047
2.24282 0.364315 0.53678
2.24319 0.363048 0.7
2.24282 0.364315 0.86322
2.24124 0.37047 1.02953
2.24282 0.53678 0.364315
2.24457 0.534376 0.534376
2.24498 0.53376 0.7
2.24457 0.534376 0.865625
2.24282 0.53678 1.03569
2.24319 0.7 0.363048
2.24498 0.7 0.53376
2.24543 0.7 0.7
2.24498 0.7 0.86624
2.24319 0.7 1.03695
2.24282 0.86322 0.364315
2.24457 0.865625 0.534376
2.24498 0.86624 0.7
2.24457 0.865625 0.865625
2.24282 0.86322 1.03569
2.24124 1.02953 0.37047
2.24282 1.03569 0.53678
2.24319 1.03695 0.7
2.24282 1.03569 0.86322
2.24124 1.02953 1.02953
2.42132 0.375336 0.375336
2.42664 0.370025 0.538744
2.4277 0.368911 0.7
2.42664 0.370025 0.861256
2.42132 0.375336 1.02466
2.42664 0.538744 0.370025
2.43287 0.536571 0.536571
2.4341 0.536021 0.7
2.43287 0.536571 0.863429
2.42664 0.538744 1.02997
2.4277 0.7 0.368911
2.4341 0.7 0.536021
2.43536 0.7 0.7
2.4341 0.7 0.86398
2.4277 0.7 1.03109
2.42664 0.861256 0.370025
2.43287 0.863429 0.536571
2.4341 0.86398 0.7
2.43287 0.863429 0.863429
2.42664 0.861256 1.02997
2.42132 1.02466 0.375336
2.42664 1.02997 0.538744
2.4277 1.03109 0.7
2.42664 1.02997 0.861256
2.42132 1.02466 1.02466
VERTICES 200 400
1 0
1 1
1 2
1 3
1 4
1 5
1 6
1 7
1 8
1 9
1 10
1 11
1 12
1 13
1 14
1 15
1 16
1 17
1 18
1 19
1 20
1 21
1 22
1 23
1 24
1 25
1 26
1 27
1 28
1 29
1 30
1 31
1 32
1 33
1 34
1 35
1 36
1 37
1 38
1 39
1 40
1 41
1 42
1 43
1 44
1 45
1 46
1 47
1 48
1 49
1 50
1 51
1 52
1 53
1 54
1 55
1 56
1 57
1 58
1 59
1 60
1 61
1 62
1 63
1 64
1 65
1 66
1 67
1 68
1 69
1 70
1 71
1 72
1 73
1 74
1 75
1 76
1 77
1 78
1 79
1 80
1 81
1 82
1 83
1 84
1 85
1 86
1 87
1 88
1 89
1 90
1 91
1 92
1 93
1 94
1 95
1 96
1 97
1 98
1 99
1 100
1 101
1 102
1 103
1 104
1 105
1 106
1 107
1 108
1 109
1 110
1 111
1 112
1 113
1 114
1 115
1 116
1 117
1 118
1 119
1 120
1 121
1 122
1 123
1 124
1 125
1 126
1 127
1 128
1 129
1 130
1 131
1 132
1 133
1 134
1 135
1 136
1 137
1 138
1 139
1 140
1 141
1 142
1 143
1 144
1 145
1 146
1 147
1 148
1 149
1 150
1 151
1 152
1 153
1 154
1 155
1 156
1 157
1 158
1 159
1 160
1 161
1 162
1 163
1 164
1 165
1 166
1 167
1 168
1 169
1 170
1 171
1 172
1 173
1 174
1 175
1 176
1 177
1 178
1 179
1 180
1 181
1 182
1 183
1 184
1 185
1 186
1 187
1 188
1 189
1 190
1 191
1 192
1 193
1 194
1 195
1 196
1 197
1 198
1 199
POINT_DATA 200
VECTORS velocity float
-0.150346 -0.158791 -0.158791
-0.156574 -0.164768 -0.08993
-0.157957 -0.166217 2.02883e-06
-0.156574 -0.164768 0.0899293
-0.150346 -0.158791 0.158791
-0.156574 -0.08993 -0.164768
-0.163922 -0.0926767 -0.0926767
-0.165523 -0.0933875 -1.2455e-06
-0.163922 -0.0926767 0.0926764
-0.156574 -0.0899299 0.164768
-0.157957 2.0357e-06 -0.166217
-0.165523 -1.24666e-06 -0.0933875
-0.16719 1.34704e-06 1.34538e-06
-0.165524 -1.13058e-06 0.0933884
-0.157957 2.05147e-06 0.166218
-0.156574 0.0899294 -0.164768
-0.163922 0.0926764 -0.0926767
-0.165524 0.0933884 -1.13205e-06
-0.163922 0.0926762 0.0926762
-0.156574 0.0899291 0.164768
-0.150346 0.158791 -0.158791
-0.156574 0.164768 -0.0899299
-0.157957 0.166218 2.04796e-06
-0.156574 0.164768 0.0899291
-0.150346 0.158791 0.158791
-0.0556146 -0.163868 -0.163868
-0.0576011 -0.17083 -0.0923273
-0.0580894 -0.17248 1.45583e-06
-0.0576011 -0.17083 0.0923269
-0.0556146 -0.163868 0.163868
-0.0576012 -0.0923272 -0.17083
-0.0598089 -0.0953256 -0.0953256
-0.0603707 -0.0961231 -2.31574e-06
-0.0598087 -0.0953254 0.095327
-0.0576012 -0.0923272 0.170829
-0.0580894 1.45082e-06 -0.17248
-0.0603707 -2.31587e-06 -0.096123
-0.0609508 -1.23289e-07 -1.22511e-07
-0.0603706 -2.43476e-06 0.0961233
-0.0580893 1.45345e-06 0.17248
-0.057601 0.0923269 -0.17083
-0.0598087 0.0953271 -0.0953254
-0.0603706 0.0961233 -2.43465e-06
-0.0598087 0.0953269 0.0953269
-0.057601 0.0923269 0.17083
-0.0556146 0.163868 -0.163868
-0.0576011 0.170829 -0.0923272
-0.0580893 0.17248 1.45275e-06
-0.057601 0.170829 0.0923269
-0.0556145 0.163868 0.163868
0.055616 -0.163868 -0.163868
0.0576005 -0.17083 -0.0923273
0.0580893 -0.17248 1.48291e-06
0.0576005 -0.17083 0.0923269
0.0556159 -0.163868 0.163868
0.0576005 -0.0923273 -0.17083
0.0598072 -0.0953256 -0.0953256
0.0603709 -0.0961231 -2.23293e-06
0.0598071 -0.0953254 0.0953269
0.0576006 -0.0923272 0.170829
0.0580893 1.48442e-06 -0.17248
0.060371 -2.28158e-06 -0.0961231
0.0609532 -2.19442e-07 -2.17892e-07
0.0603708 -2.47046e-06 0.0961234
0.0580891 1.48988e-06 0.17248
0.0576005 0.0923269 -0.17083
0.0598071 0.095327 -0.0953254
0.0603708 0.0961234 -2.38448e-06
0.0598071 0.095327 0.0953269
0.0576005 0.0923269 0.17083
0.0556159 0.163868 -0.163868
0.0576005 0.170829 -0.0923272
0.0580891 0.17248 1.48708e-06
0.0576005 0.170829 0.0923269
0.0556159 0.163868 0.163868
0.150345 -0.158791 -0.158791
0.156575 -0.164768 -0.08993
0.157958 -0.166217 2.0256e-06
0.156574 -0.164768 0.0899291
0.150345 -0.158791 0.158791
0.156575 -0.08993 -0.164768
0.163921 -0.0926767 -0.0926767
0.165524 -0.0933875 -1.26004e-06
0.163921 -0.0926767 0.0926764
0.156575 -0.0899298 0.164768
0.157958 2.05401e-06 -0.166217
0.165524 -1.26004e-06 -0.0933875
0.167191 1.48388e-06 1.48379e-06
0.165524 -1.12954e-06 0.0933883
0.157958 1.84866e-06 0.166218
0.156575 0.0899291 -0.164768
0.163921 0.0926764 -0.0926767
0.165524 0.0933883 -1.13092e-06
0.163921 0.0926762 0.0926762
0.156575 0.0899291 0.164768
0.150345 0.158791 -0.158791
0.156575 0.164768 -0.0899298
0.157958 0.166218 1.84169e-06
0.156575 0.164768 0.0899291
0.150345 0.158791 0.158791
-0.150345 -0.158791 -0.158791
-0.156574 -0.164768 -0.08993
-0.157959 -0.166217 2.0309e-06
-0.156574 -0.164768 0.0899294
-0.150345 -0.158791 0.158791
-0.156574 -0.08993 -0.164768
-0.163926 -0.0926768 -0.0926768
-0.165521 -0.0933874 -1.27531e-06
-0.163926 -0.0926768 0.0926765
-0.156574 -0.08993 0.164768
-0.157959 2.03361e-06 -0.166217
-0.16552 -1.27486e-06 -0.0933873
-0.167195 1.35025e-06 1.34054e-06
-0.165521 -1.26325e-06 0.0933883
-0.157959 2.03446e-06 0.166217
-0.156574 0.0899293 -0.164768
-0.163926 0.0926766 -0.0926768
-0.16552 0.0933882 -1.16202e-06
-0.163926 0.0926765 0.0926763
-0.156574 0.0899293 0.164768
-0.150345 0.158791 -0.158791
-0.156574 0.164768 -0.08993
-0.157959 0.166217 2.03322e-06
-0.156574 0.164768 0.0899293
-0.150345 0.158791 0.158791
-0.0556175 -0.163868 -0.163868
-0.0576066 -0.17083 -0.0923273
-0.0580941 -0.17248 1.48547e-06
-0.0576065 -0.17083 0.0923271
-0.0556175 -0.163868 0.163868
-0.0576065 -0.0923273 -0.17083
-0.0598075 -0.0953252 -0.0953252
-0.0603695 -0.0961232 -2.56076e-06
-0.0598075 -0.0953251 0.0953269
-0.0576066 -0.0923273 0.170829
-0.0580941 1.48651e-06 -0.17248
-0.0603694 -2.55188e-06 -0.0961232
-0.0609484 -1.53585e-07 -1.50755e-07
-0.0603695 -2.51839e-06 0.0961234
-0.058094 1.48827e-06 0.17248
-0.0576065 0.0923271 -0.17083
-0.0598075 0.0953269 -0.0953251
-0.0603695 0.0961234 -2.60605e-06
-0.0598075 0.0953267 0.0953267
-0.0576065 0.0923271 0.17083
-0.0556175 0.163868 -0.163868
-0.0576066 0.170829 -0.0923273
-0.0580941 0.17248 1.44738e-06
-0.0576065 0.17083 0.0923269
-0.0556175 0.163868 0.163868
0.0556206 -0.163869 -0.163869
0.0575983 -0.17083 -0.0923276
0.058085 -0.172479 1.70599e-06
0.0575982 -0.17083 0.0923271
0.0556205 -0.163869 0.163868
0.0575983 -0.0923276 -0.17083
0.0598036 -0.0953255 -0.0953255
0.060378 -0.0961233 -2.17375e-06
0.0598036 -0.0953255 0.0953267
0.0575983 -0.0923275 0.170829
0.058085 1.65759e-06 -0.172479
0.060378 -2.1752e-06 -0.0961233
0.0609452 -9.37444e-08 -9.23602e-08
0.0603779 -2.17356e-06 0.0961234
0.0580849 1.67136e-06 0.17248
0.0575982 0.0923272 -0.17083
0.0598036 0.0953267 -0.0953256
0.0603781 0.0961234 -2.16358e-06
0.0598036 0.0953267 0.0953267
0.0575982 0.0923271 0.17083
0.0556206 0.163868 -0.163869
0.0575983 0.170829 -0.0923276
0.0580849 0.17248 1.66954e-06
0.0575982 0.17083 0.0923271
0.0556205 0.163868 0.163868
0.150347 -0.158791 -0.158791
0.156579 -0.164768 -0.0899299
0.157964 -0.166216 2.02757e-06
0.156579 -0.164768 0.0899293
0.150347 -0.158791 0.15879
0.156579 -0.0899299 -0.164768
0.163922 -0.0926771 -0.0926771
0.16553 -0.0933878 -1.33867e-06
0.163922 -0.0926771 0.0926766
0.156579 -0.0899299 0.164768
0.157964 2.03623e-06 -0.166216
0.16553 -1.33762e-06 -0.0933878
0.167181 1.56465e-06 1.5637e-06
0.16553 -1.19286e-06 0.0933884
0.157964 2.0568e-06 0.166218
0.156579 0.0899293 -0.164768
0.163922 0.0926766 -0.0926771
0.16553 0.0933884 -1.19627e-06
0.163922 0.0926765 0.0926764
0.156579 0.0899291 0.164768
0.150347 0.15879 -0.158791
0.156579 0.164768 -0.0899299
0.157964 0.166218 2.04902e-06
0.156579 0.164768 0.0899291
0.150347 0.158791 0.15879
VECTORS force float
-0.00524233 -0.0116168 -0.0116168
-0.00536333 -0.0110578 -0.00142206
-0.00513482 -0.010732 -2.22116e-07
-0.00536333 -0.0110579 0.00142223
-0.00524234 -0.0116168 0.0116169
-0.00536334 -0.00142206 -0.0110578
-0.00552325 -0.00177063 -0.00177063
-0.00529786 -0.00175047 -1.93685e-07
-0.00552325 -0.00177064 0.00177036
-0.00536332 -0.00142206 0.011058
-0.00513482 -2.16064e-07 -0.010732
-0.00529786 -1.889e-07 -0.00175048
-0.00507869 4.62132e-07 4.62295e-07
-0.00529788 -2.51798e-07 0.00175004
-0.00513482 -2.17382e-07 0.0107324
-0.00536332 0.00142223 -0.0110578
-0.00552326 0.00177036 -0.00177064
-0.00529788 0.00175004 -2.50564e-07
-0.00552327 0.00177045 0.00177046
-0.00536332 0.00142229 0.011058
-0.00524235 0.0116169 -0.0116168
-0.00536333 0.011058 -0.00142206
-0.00513482 0.0107324 -2.23912e-07
-0.00536332 0.011058 0.00142229
-0.00524236 0.0116169 0.0116169
0.000589404 -0.0106326 -0.0106326
0.000338909 -0.0100623 -0.00170715
0.000330736 -0.00974833 1.95528e-07
0.000338895 -0.0100623 0.00170636
0.000589407 -0.0106326 0.0106331
0.000338916 -0.00170714 -0.0100623
0.000107604 -0.00204099 -0.00204102
9.43536e-05 -0.0020248 3.27576e-07
0.000107594 -0.00204107 0.00204031
0.000338921 -0.00170715 0.0100627
0.000330738 1.94798e-07 -0.00974833
9.43539e-05 3.2263e-07 -0.00202478
7.91965e-05 9.87872e-08 9.43e-08
9.43262e-05 3.79829e-07 0.00202461
0.000330729 1.97429e-07 0.00974842
0.000338892 0.00170636 -0.0100623
0.000107592 0.00204031 -0.00204108
9.43315e-05 0.00202461 3.80936e-07
0.000107582 0.00204026 0.00204026
0.000338882 0.00170636 0.0100628
0.00058941 0.0106331 -0.0106326
0.0003389 0.0100627 -0.00170715
0.000330733 0.00974842 1.99723e-07
0.000338882 0.0100628 0.00170636
0.000589379 0.0106331 0.0106331
-0.00058953 -0.0106326 -0.0106326
-0.000338975 -0.0100623 -0.00170709
-0.000330745 -0.00974832 2.06683e-07
-0.000338965 -0.0100623 0.0017063
-0.000589565 -0.0106326 0.0106332
-0.000338985 -0.00170709 -0.0100623
-0.000107751 -0.00204101 -0.00204101
-9.43565e-05 -0.00202481 3.49535e-07
-0.000107746 -0.00204108 0.00204026
-0.000338995 -0.00170714 0.0100628
-0.000330746 2.0445e-07 -0.00974832
-9.43564e-05 3.50045e-07 -0.00202481
-7.90647e-05 1.03299e-07 9.87969e-08
-9.43468e-05 3.83584e-07 0.00202462
-0.000330744 2.3062e-07 0.00974842
-0.000338954 0.0017063 -0.0100623
-0.000107739 0.00204026 -0.00204108
-9.43436e-05 0.00202461 3.83699e-07
-0.000107735 0.00204026 0.00204026
-0.000338941 0.00170629 0.0100628
-0.000589555 0.0106332 -0.0106326
-0.000338966 0.0100628 -0.00170712
-0.000330735 0.00974842 2.32259e-07
-0.00033894 0.0100628 0.00170629
-0.000589539 0.0106332 0.0106332
0.00524246 -0.0116168 -0.0116168
0.00536311 -0.0110579 -0.00142207
0.00513472 -0.010732 -2.56592e-07
0.00536312 -0.0110579 0.0014223
0.00524248 -0.0116169 0.0116169
0.00536311 -0.0014221 -0.0110579
0.00552282 -0.0017706 -0.0017706
0.00529771 -0.00175051 -2.19713e-07
0.00552283 -0.00177065 0.00177037
0.00536314 -0.00142188 0.0110581
0.00513472 -2.16574e-07 -0.010732
0.00529771 -2.17694e-07 -0.00175051
0.00507887 4.6026e-07 4.60952e-07
0.00529771 -2.52008e-07 0.00175008
0.00513471 -2.95229e-07 0.0107324
0.00536312 0.0014223 -0.0110579
0.00552283 0.00177038 -0.00177065
0.00529771 0.00175008 -2.51102e-07
0.00552284 0.00177048 0.00177048
0.00536312 0.0014223 0.011058
0.00524248 0.0116169 -0.0116169
0.00536312 0.0110581 -0.00142188
0.00513471 0.0107324 -2.95261e-07
0.00536312 0.011058 0.0014223
0.00524249 0.0116169 0.0116169
-0.00523972 -0.011617 -0.0116171
-0.0053658 -0.0110578 -0.00142219
-0.00513762 -0.010732 -2.16847e-07
-0.00536581 -0.0110578 0.00142233
-0.00523974 -0.0116171 0.0116172
-0.00536579 -0.00142221 -0.0110578
-0.00552537 -0.00177053 -0.00177053
-0.00529596 -0.00175038 -2.8681e-07
-0.00552537 -0.00177063 0.00177042
-0.00536581 -0.00142218 0.0110579
-0.00513763 -2.22207e-07 -0.010732
-0.00529595 -2.85751e-07 -0.00175036
-0.00508023 4.67392e-07 4.58439e-07
-0.005296 -2.1862e-07 0.00174995
-0.00513762 -2.19463e-07 0.0107323
-0.0053658 0.00142234 -0.0110578
-0.0055254 0.00177041 -0.00177054
-0.00529595 0.00174994 -3.46245e-07
-0.00552541 0.00177041 0.00177051
-0.0053658 0.00142233 0.0110579
-0.00523974 0.0116172 -0.0116171
-0.0053658 0.0110579 -0.00142217
-0.00513762 0.0107323 -2.2786e-07
-0.0053658 0.0110579 0.00142234
-0.00523976 0.0116172 0.0116172
0.000585842 -0.0106323 -0.0106323
0.000344855 -0.0100623 -0.00170718
0.000336516 -0.00974846 2.33153e-07
0.000344869 -0.0100623 0.00170635
0.000585867 -0.0106322 0.0106329
0.000344876 -0.00170719 -0.0100623
0.000110346 -0.00204121 -0.00204121
9.60866e-05 -0.00202482 3.53927e-07
0.000110357 -0.00204122 0.00204045
0.000344853 -0.00170724 0.0100628
0.000336517 2.35145e-07 -0.00974844
9.61057e-05 3.86605e-07 -0.00202483
7.87953e-05 1.51975e-07 1.54812e-07
9.61129e-05 3.27387e-07 0.00202454
0.000336534 2.64479e-07 0.00974859
0.000344867 0.00170636 -0.0100623
0.000110328 0.0020404 -0.00204129
9.61049e-05 0.00202454 3.5322e-07
0.000110342 0.00204053 0.00204053
0.00034486 0.00170636 0.0100628
0.000585872 0.0106328 -0.0106323
0.000344851 0.0100628 -0.00170718
0.000336521 0.00974859 1.69686e-07
0.000344863 0.0100627 0.00170642
0.000585876 0.0106328 0.0106328
-0.000586042 -0.0106324 -0.0106324
-0.000343832 -0.0100623 -0.00170694
-0.000335808 -0.0097485 2.27624e-07
-0.00034387 -0.0100623 0.00170614
-0.000586049 -0.0106324 0.0106329
-0.000343834 -0.00170688 -0.0100623
-0.000110561 -0.00204114 -0.00204113
-9.45694e-05 -0.0020247 2.29351e-07
-0.000110568 -0.00204115 0.00204061
-0.000343914 -0.00170689 0.0100626
-0.00033581 1.92991e-07 -0.0097485
-9.45691e-05 2.33034e-07 -0.00202471
-8.06275e-05 -1.3432e-08 -9.4492e-09
-9.46031e-05 2.30038e-07 0.00202474
-0.00033582 1.97242e-07 0.00974848
-0.000343914 0.00170614 -0.0100623
-0.000110564 0.00204061 -0.00204114
-9.45682e-05 0.00202474 2.65243e-07
-0.000110572 0.0020406 0.00204055
-0.000343947 0.00170613 0.0100627
-0.000586046 0.0106329 -0.0106324
-0.000343822 0.0100626 -0.00170689
-0.000335815 0.00974848 1.87921e-07
-0.000343948 0.0100626 0.0017062
-0.000586054 0.0106329 0.0106329
0.00524109 -0.0116169 -0.0116169
0.00536488 -0.011058 -0.00142207
0.00513592 -0.0107319 -2.60322e-07
0.00536489 -0.011058 0.00142241
0.00524116 -0.0116169 0.0116169
0.00536489 -0.00142207 -0.011058
0.00552363 -0.00177028 -0.00177028
0.00529848 -0.00175039 -3.82732e-07
0.00552368 -0.00177027 0.00177026
0.00536489 -0.00142209 0.0110581
0.00513594 -2.2208e-07 -0.0107319
0.00529848 -3.81829e-07 -0.00175039
0.00507771 4.52977e-07 4.53191e-07
0.00529849 -4.51178e-07 0.00175005
0.00513599 -2.2145e-07 0.0107323
0.00536489 0.00142234 -0.011058
0.00552367 0.00177025 -0.00177027
0.00529849 0.00175005 -4.50698e-07
0.00552373 0.00177036 0.00177036
0.00536489 0.00142238 0.011058
0.00524114 0.011617 -0.0116169
0.00536489 0.0110581 -0.00142209
0.00513595 0.0107323 -2.19646e-07
0.00536489 0.011058 0.00142238
0.00524122 0.011617 0.011617
SCALARS mass float 1
LOOKUP_TABLE default
1
1
1
1
1
1
1
1
1
1
1
1
1
1
1
1
1
1
1
1
1
1
1
1
1
1
1
1
1
1
1
1
1
1
1
1
1
1
1
1
1
1
1
1
1
1
1
1
1
1
1
1
1
1
1
1
1
1
1
1
1
1
1
1
1
1
1
1
1
1
1
1
1
1
1
1
1
1
1
1
1
1
1
1
1
1
1
1
1
1
1
1
1
1
1
1
1
1
1
1
1
1
1
1
1
1
1
1
1
1
1
1
1
1
1
1
1
1
1
1
1
1
1
1
1
1
1
1
1
1
1
1
1
1
1
1
1
1
1
1
1
1
1
1
1
1
1
1
1
1
1
1
1
1
1
1
1
1
1
1
1
1
1
1
1
1
1
1
1
1
1
1
1
1
1
1
1
1
1
1
1
1
1
1
1
1
1
1
1
1
1
1
1
1
1
1
1
1
1
1
