# vtk DataFile Version 3.0
Molecular Dynamics Particle Data
ASCII
DATASET POLYDATA
POINTS 200 float
0.0102068 0.00844007 1.00117
-0.11414 -0.104456 0.989139
0.0171535 0.198977 0.98
0.147979 -0.193095 0.970103
-0.276148 0.0493087 0.960079
0.263031 0.167856 0.95012
-0.0889464 -0.329109 0.94009
-0.169245 0.325993 0.930083
0.368148 -0.133759 0.920092
-0.382925 -0.158282 0.9101
0.184782 0.395135 0.900101
0.136205 -0.434982 0.890096
-0.411119 0.23792 0.880087
0.482048 0.106084 0.870085
-0.293048 -0.417073 0.86007
-0.067966 0.522093 0.85007
0.415 -0.35011 0.840079
-0.557085 -0.022885 0.830071
0.406156 0.403947 0.820077
-0.0271695 -0.586061 0.81008
-0.383909 0.461154 0.800085
0.608033 -0.0821887 0.790087
-0.514148 -0.356885 0.780088
0.140189 0.622 0.770088
0.322873 -0.564139 0.760086
-0.63 0.201183 0.750085
0.611122 0.281877 0.740086
-0.264164 -0.63 0.73008
-0.234883 0.653112 0.720081
0.623 -0.328143 0.71007
-0.691098 -0.181899 0.700078
0.391134 0.609 0.69007
0.123921 -0.723092 0.680068
-0.587 0.455112 0.670067
0.749088 0.0619321 0.660065
-0.516102 -0.558 0.650065
0.00404841 0.768087 0.640056
0.522017 -0.575095 0.630062
-0.781084 0.0720444 0.620055
0.631085 0.479033 0.610056
-0.143038 -0.787082 0.600057
-0.43004 0.683084 0.590048
0.78608 -0.215035 0.580058
-0.731079 -0.375049 0.570046
0.288024 0.777091 0.560048
0.315049 -0.774079 0.550046
-0.761085 0.360027 0.540055
0.810082 0.25005 0.530039
-0.432019 -0.737096 0.52004
-0.181045 0.841083 0.510048
0.7061 -0.502021 0.500041
-0.865089 -0.108045 0.490047
0.569028 0.668099 0.480046
0.032047 -0.882093 0.470042
-0.623099 0.632034 0.460038
0.892097 -0.0459518 0.45004
-0.692039 -0.572093 0.440043
0.124963 0.894099 0.430041
0.515087 -0.747052 0.420043
-0.889106 0.204965 0.410036
0.79706 0.452085 0.400042
-0.283986 -0.876102 0.390041
-0.384088 0.842065 0.380039
0.855106 -0.362992 0.370038
-0.87907 -0.31108 0.360034
0.44 0.827107 0.350035
0.235072 -0.91108 0.340038
-0.7921 0.514012 0.330038
0.935088 0.15606 0.320036
-0.586024 -0.749102 0.310034
-0.0740522 0.951093 0.300033
0.6991 -0.653034 0.290025
-0.960096 0.00896483 0.280032
0.71604 0.643097 0.270025
-0.0939679 -0.961101 0.260026
-0.582087 0.774057 0.250028
0.9541 -0.17799 0.240028
-0.826064 -0.514081 0.230024
0.262 0.940101 0.220028
0.442072 -0.872071 0.210027
-0.917103 0.345 0.20002
0.911082 0.366061 0.190023
-0.426017 -0.887102 0.180022
-0.286049 0.943089 0.170022
0.849098 -0.503031 0.160018
-0.968095 -0.203043 0.150018
0.577038 0.804093 0.140014
0.118027 -0.984097 0.130012
-0.753089 0.64705 0.120014
0.993099 0.0310247 0.110013
-0.712064 -0.695077 0.100012
0.0559843 0.994101 0.0900079
0.631078 -0.772067 0.08001
-0.987101 0.143 0.0700079
0.825076 0.562066 0.0600066
-0.229015 -0.972099 0.0500074
-0.488061 0.872082 0.0400062
0.949098 -0.313023 0.030003
-0.91209 -0.410049 0.0200029
0.39504 0.919094 0.01
0.329035 -0.944095 -1.6176e-06
-0.88109 0.47405 -0.0100017
0.969097 0.245025 -0.0200003
-0.549056 -0.835085 -0.0300041
-0.160007 0.9861 -0.0400038
0.78407 -0.619071 -0.0500041
-0.996102 -0.072993 -0.0600075
0.68508 0.726066 -0.0700072
-0.0150099 -0.997101 -0.0800059
-0.662053 0.744087 -0.0900089
0.990099 -0.101032 -0.100013
-0.79809 -0.593047 -0.110012
0.187039 0.975095 -0.120016
0.520033 -0.844097 -0.130016
-0.95209 0.271049 -0.140014
0.884101 0.443019 -0.150016
-0.352059 -0.922083 -0.160019
-0.363004 0.916103 -0.170019
0.885078 -0.430067 -0.180023
-0.941102 -0.28 -0.190024
0.50407 0.840069 -0.200021
0.195988 -0.958103 -0.210024
-0.790062 0.573082 -0.220026
0.9671 0.110978 -0.230031
-0.636095 -0.733043 -0.240027
-0.0259658 0.968098 -0.250029
0.671037 -0.694097 -0.260029
-0.961095 0.0590398 -0.27003
0.746098 0.60403 -0.280032
-0.141059 -0.94709 -0.290034
-0.533018 0.7911 -0.300034
0.924082 -0.22207 -0.31003
-0.829105 -0.459 -0.320035
0.300077 0.895073 -0.330033
0.381999 -0.859108 -0.340033
-0.859066 0.374088 -0.350034
0.882108 0.302981 -0.360032
-0.444088 -0.81606 -0.370039
-0.222973 0.898105 -0.380036
0.767051 -0.509096 -0.390035
-0.9051 -0.141962 -0.400035
0.5691 0.713038 -0.410041
0.0619533 -0.905098 -0.420035
-0.654035 0.623097 -0.430045
0.898091 -0.0180407 -0.440047
-0.670098 -0.590029 -0.450043
0.0950533 0.883089 -0.460043
0.523026 -0.711093 -0.470049
-0.861084 0.170053 -0.480049
0.745095 0.453021 -0.490049
-0.241059 -0.83208 -0.50004
-0.381017 0.771091 -0.510051
0.796076 -0.309053 -0.520047
-0.790094 -0.308014 -0.530045
0.372053 0.755072 -0.54005
0.234019 -0.802089 -0.550055
-0.709071 0.42906 -0.560045
0.806093 0.161009 -0.570047
-0.481053 -0.657072 -0.580047
-0.0880232 0.803087 -0.590055
0.602073 -0.527057 -0.600045
-0.792089 -0.0170259 -0.610052
0.567039 0.542086 -0.620051
-0.0509625 -0.775089 -0.630059
-0.481092 0.599037 -0.640056
0.751095 -0.115955 -0.650058
-0.625026 -0.417108 -0.660065
0.176941 0.721098 -0.670064
0.352122 -0.643024 -0.680065
-0.685105 0.232924 -0.690068
0.654012 0.287135 -0.700072
-0.283911 -0.644118 -0.710072
-0.222154 0.657011 -0.720075
0.599124 -0.329889 -0.730092
-0.654009 -0.159172 -0.740088
0.368886 0.549145 -0.750088
0.0981797 -0.643026 -0.760091
-0.497158 0.399893 -0.770089
0.625041 0.0391949 -0.780089
-0.42491 -0.442172 -0.790084
0.0148228 0.600065 -0.800086
0.385179 -0.441939 -0.810077
-0.569087 0.0638588 -0.82008
0.450992 0.328144 -0.830075
-0.107924 -0.532094 -0.840076
-0.272079 0.451047 -0.850073
0.489074 -0.144039 -0.860071
-0.443098 -0.216965 -0.870081
0.174147 0.442003 -0.880088
0.163819 -0.426109 -0.8901
-0.389913 0.19424 -0.9001
0.399106 0.113734 -0.910102
-0.205261 -0.333895 -0.920096
-0.0698111 0.361125 -0.930087
0.274016 -0.203097 -0.940093
-0.310901 -0.0331187 -0.950128
0.185888 0.210275 -0.960089
0.00406832 -0.242852 -0.970129
-0.136912 0.143807 -0.980129
0.140805 -0.0101341 -0.990132
VERTICES 200 400
1 0
1 1
1 2
1 3
1 4
1 5
1 6
1 7
1 8
1 9
1 10
1 11
1 12
1 13
1 14
1 15
1 16
1 17
1 18
1 19
1 20
1 21
1 22
1 23
1 24
1 25
1 26
1 27
1 28
1 29
1 30
1 31
1 32
1 33
1 34
1 35
1 36
1 37
1 38
1 39
1 40
1 41
1 42
1 43
1 44
1 45
1 46
1 47
1 48
1 49
1 50
1 51
1 52
1 53
1 54
1 55
1 56
1 57
1 58
1 59
1 60
1 61
1 62
1 63
1 64
1 65
1 66
1 67
1 68
1 69
1 70
1 71
1 72
1 73
1 74
1 75
1 76
1 77
1 78
1 79
1 80
1 81
1 82
1 83
1 84
1 85
1 86
1 87
1 88
1 89
1 90
1 91
1 92
1 93
1 94
1 95
1 96
1 97
1 98
1 99
1 100
1 101
1 102
1 103
1 104
1 105
1 106
1 107
1 108
1 109
1 110
1 111
1 112
1 113
1 114
1 115
1 116
1 117
1 118
1 119
1 120
1 121
1 122
1 123
1 124
1 125
1 126
1 127
1 128
1 129
1 130
1 131
1 132
1 133
1 134
1 135
1 136
1 137
1 138
1 139
1 140
1 141
1 142
1 143
1 144
1 145
1 146
1 147
1 148
1 149
1 150
1 151
1 152
1 153
1 154
1 155
1 156
1 157
1 158
1 159
1 160
1 161
1 162
1 163
1 164
1 165
1 166
1 167
1 168
1 169
1 170
1 171
1 172
1 173
1 174
1 175
1 176
1 177
1 178
1 179
1 180
1 181
1 182
1 183
1 184
1 185
1 186
1 187
1 188
1 189
1 190
1 191
1 192
1 193
1 194
1 195
1 196
1 197
1 198
1 199
POINT_DATA 200
VECTORS velocity float
0.016636 0.0132671 0.00199616
-0.0164899 -0.0154291 -0.00135037
0.00029407 0.00209701 2.25767e-06
-5.12423e-05 -0.000186953 0.000209934
-0.000289362 0.000624951 0.000160988
6.51159e-05 -0.000286011 0.000239738
0.000114466 -0.000246342 0.000173331
-0.000490657 -1.89898e-05 0.000166029
0.000295453 0.000481622 0.00018407
0.000144428 -0.00056194 0.0001997
-0.000433132 0.000270717 0.000206012
0.000408926 3.80844e-05 0.000193066
-0.000238035 -0.000158225 0.000173394
9.71824e-05 0.000167833 0.0001699
-9.76205e-05 -0.000146672 0.000144147
6.78689e-05 0.000185461 0.000144377
6.7997e-06 -0.000220114 0.000160304
-0.000169631 0.000229397 0.000148127
0.000311458 -0.00010709 0.000157963
-0.000338232 -0.000121375 0.000162838
0.000182062 0.00030861 0.000170136
6.61849e-05 -0.000376839 0.000173878
-0.000295161 0.000229185 0.000175196
0.000378074 2.91507e-05 0.000176285
-0.000255217 -0.000278551 0.000172238
-8.0739e-06 0.000366439 0.00017003
0.000244641 -0.000245384 0.000172377
-0.000327822 -8.15911e-07 0.000161418
0.000233895 0.000224992 0.000162365
1.23977e-05 -0.000287234 0.000144536
-0.000197118 0.000202083 0.000158306
0.000268127 4.26638e-06 0.000144631
-0.000158171 -0.000185084 0.000138305
-2.61012e-05 0.000224562 0.000135405
0.000176188 -0.000135694 0.0001306
-0.000208445 -2.80319e-05 0.00013155
9.69266e-05 0.000174838 0.000112313
4.14531e-05 -0.000190793 0.000123492
-0.000168718 8.89442e-05 0.000111593
0.000169807 6.72675e-05 0.000112201
-7.54129e-05 -0.00016524 0.000113339
-8.03756e-05 0.000168035 0.000100328
0.000161412 -6.96357e-05 0.000116772
-0.000159475 -9.81447e-05 9.71562e-05
4.97601e-05 0.000181528 9.93568e-05
9.96985e-05 -0.000160606 9.71582e-05
-0.000169545 5.46413e-05 0.00011049
0.000164957 0.000100611 8.8561e-05
-4.21617e-05 -0.000193954 9.00111e-05
-8.90633e-05 0.000166646 9.9625e-05
0.000201389 -4.61385e-05 9.09362e-05
-0.000178468 -8.99825e-05 9.3692e-05
5.70144e-05 0.000199204 9.17224e-05
9.39005e-05 -0.000185653 8.43786e-05
-0.00019985 6.82682e-05 7.79954e-05
0.000196474 9.61957e-05 8.07266e-05
-8.69338e-05 -0.000187049 8.61633e-05
-7.4849e-05 0.000200639 8.26051e-05
0.000174029 -0.000105718 8.64463e-05
-0.000214654 -7.01384e-05 7.54062e-05
0.000120514 0.000170034 8.37294e-05
2.78043e-05 -0.000206823 8.17259e-05
-0.000176098 0.00013081 7.85498e-05
0.000214063 2.01224e-05 7.69696e-05
-0.000145728 -0.000161812 6.82019e-05
-5.92911e-07 0.000216321 7.26141e-05
0.000143937 -0.000162399 7.71775e-05
-0.000204011 3.73907e-05 7.72674e-05
0.000175572 0.000120524 7.5012e-05
-4.94622e-05 -0.000208046 6.95732e-05
-0.000104292 0.000185767 6.56016e-05
0.000203818 -6.96491e-05 5.11891e-05
-0.000193455 -7.03484e-05 6.43188e-05
8.94886e-05 0.000195053 5.14704e-05
6.42494e-05 -0.000205318 5.31377e-05
-0.000173398 0.000114997 5.62381e-05
0.000204128 2.17346e-05 5.56191e-05
-0.000129519 -0.000163519 4.93067e-05
4.11251e-06 0.000205582 5.54878e-05
0.000144448 -0.000146815 5.40069e-05
-0.000209255 1.29248e-05 4.08895e-05
0.000165018 0.000122711 4.50032e-05
-3.49101e-05 -0.000206875 4.31534e-05
-9.97892e-05 0.00017883 4.37475e-05
0.000196708 -6.14914e-05 3.73455e-05
-0.000190289 -8.53974e-05 3.74663e-05
8.05845e-05 0.000186175 2.81693e-05
5.36664e-05 -0.000194555 2.52828e-05
-0.000177437 0.000102134 2.88828e-05
0.000199869 4.93469e-05 2.66516e-05
-0.000129474 -0.000157766 2.32808e-05
-3.14487e-05 0.000204142 1.58204e-05
0.000158729 -0.00013519 2.01913e-05
-0.000204295 -4.22554e-06 1.57814e-05
0.000155261 0.000134825 1.34178e-05
-2.977e-05 -0.000201184 1.47947e-05
-0.000122629 0.000165794 1.24837e-05
0.000197181 -4.83651e-05 5.93329e-06
-0.000180383 -9.81189e-05 5.86402e-06
8.02329e-05 0.000189313 1.45261e-07
7.35244e-05 -0.0001898 -3.22242e-06
-0.000180649 0.000100719 -3.36769e-06
0.0001959 4.99423e-05 -1.09489e-06
-0.000111579 -0.000170086 -8.16885e-06
-1.34186e-05 0.000202693 -7.63526e-06
0.000144169 -0.000147504 -8.20381e-06
-0.000206976 1.39502e-05 -1.50067e-05
0.000161732 0.000133882 -1.44004e-05
-1.98137e-05 -0.000205271 -1.23041e-05
-0.000107758 0.000174221 -1.8473e-05
0.000199731 -6.32991e-05 -2.68526e-05
-0.000180328 -9.82365e-05 -2.38827e-05
7.82156e-05 0.000190685 -3.16576e-05
6.66276e-05 -0.000195762 -3.18014e-05
-0.000180597 9.94783e-05 -2.86522e-05
0.000206062 4.25328e-05 -3.23613e-05
-0.000118665 -0.000167607 -3.84045e-05
-1.74832e-05 0.000209629 -3.92947e-05
0.000159079 -0.000135337 -4.5503e-05
-0.000206872 -7.97363e-07 -4.81548e-05
0.000144647 0.000142722 -4.22171e-05
-2.54403e-05 -0.00020911 -4.8208e-05
-0.000125117 0.000164726 -5.3569e-05
0.000203409 -4.30915e-05 -6.15105e-05
-0.000190025 -9.35198e-05 -5.46248e-05
6.84428e-05 0.000198241 -5.73233e-05
7.95765e-05 -0.00019424 -5.75533e-05
-0.000190359 7.96998e-05 -5.97996e-05
0.000198005 6.04851e-05 -6.39743e-05
-0.000118915 -0.000179948 -6.90375e-05
-4.27123e-05 0.000202406 -7.00056e-05
0.000164947 -0.000139444 -5.91e-05
-0.000212968 -1.38033e-05 -7.17768e-05
0.000154674 0.0001513 -6.6781e-05
-1.53419e-05 -0.000217764 -6.57767e-05
-0.000134496 0.000176634 -6.82379e-05
0.000218453 -3.98911e-05 -6.32665e-05
-0.000176428 -0.00012068 -7.87307e-05
5.50228e-05 0.000213429 -7.43614e-05
0.000104196 -0.000192611 -7.14635e-05
-0.000204035 7.61186e-05 -7.35605e-05
0.000201651 8.29012e-05 -8.24318e-05
-9.32121e-05 -0.000197366 -7.36851e-05
-7.21581e-05 0.000194304 -8.91602e-05
0.000183013 -8.12912e-05 -9.42259e-05
-0.000196846 -5.79103e-05 -8.65485e-05
0.000106546 0.000177549 -8.70961e-05
5.21129e-05 -0.000187034 -9.94502e-05
-0.000168641 0.000105133 -9.8094e-05
0.000189606 4.59315e-05 -9.91123e-05
-0.000118678 -0.000161877 -8.97855e-05
-3.51946e-05 0.000181295 -0.000103528
0.00015576 -0.000107072 -9.81035e-05
-0.000188848 -2.73829e-05 -9.64423e-05
0.000106833 0.000149378 -0.000102337
3.9392e-05 -0.000177053 -0.00011036
-0.000146276 0.000118771 -9.56912e-05
0.00018578 2.06107e-05 -9.82692e-05
-0.000107187 -0.000150095 -9.89989e-05
-4.65145e-05 0.000174816 -0.000111536
0.00015148 -0.000114455 -9.63856e-05
-0.000178563 -5.19157e-05 -0.000105832
8.70191e-05 0.000172542 -0.00010431
7.50928e-05 -0.000178279 -0.000118302
-0.000184667 7.6625e-05 -0.00011271
0.00019173 9.09935e-05 -0.000115882
-5.30852e-05 -0.00021523 -0.000130304
-0.000117245 0.000197488 -0.0001281
0.000244243 -4.96886e-05 -0.000129882
-0.000213449 -0.000151114 -0.000138943
3.74625e-05 0.00027016 -0.000150149
0.000178459 -0.000236299 -0.000148648
-0.00030729 3.64382e-05 -0.00015367
0.000248725 0.000223179 -0.000182792
-3.55821e-05 -0.000344439 -0.000175631
-0.000228704 0.000290102 -0.000176442
0.000359001 -5.40846e-05 -0.000180909
-0.000315347 -0.000214408 -0.000177425
9.05771e-05 0.000389281 -0.000178362
0.000180109 -0.000344509 -0.000169297
-0.000353711 0.000131633 -0.000171453
0.000356007 0.000121175 -0.000156722
-0.000172759 -0.000281598 -0.000162239
-2.04242e-05 0.000287804 -0.000153906
0.000151883 -0.000188075 -0.00015517
-0.000157507 9.48624e-05 -0.000151342
0.000148656 -7.68485e-05 -0.000148626
-0.000195968 6.94881e-05 -0.000163393
0.000293732 1.67619e-05 -0.000175009
-0.000360952 -0.000217459 -0.000202226
0.00017338 0.000478493 -0.000203969
0.00021015 -0.000529606 -0.00020851
-0.000521259 0.000209819 -0.000192834
0.00037676 0.000249398 -0.00017338
3.21789e-05 -0.000193518 -0.000186145
0.000199017 -0.000236792 -0.000256907
-0.000224081 0.000546449 -0.000178195
0.000135446 0.000296057 -0.00025849
0.000176051 -0.000384958 -0.000259762
-0.000390009 -0.000266107 -0.000266774
VECTORS force float
0.00619268 0.00311683 0.00106618
-0.00599847 -0.00576318 -0.000312871
0.000236743 0.00263781 -7.24029e-05
-8.26077e-05 -0.000174915 0.000211518
-0.000263425 0.000650175 0.000163232
7.57727e-05 -0.000276576 0.00023641
0.000143422 -0.000351445 0.000148381
-0.000493631 -1.56276e-05 0.000164302
0.000292802 0.000476328 0.00018363
0.00012181 -0.000557017 0.000192639
-0.000425043 0.000270091 0.000204252
0.000405309 3.53958e-05 0.000191879
-0.000239262 -0.000153482 0.000171645
9.89378e-05 0.000166449 0.000169078
-9.85998e-05 -0.00014754 0.000143552
6.72932e-05 0.000183583 0.000145176
5.85573e-06 -0.000216945 0.000161532
-0.000166152 0.000226765 0.000149737
0.000306975 -0.000107123 0.000159488
-0.000334919 -0.000119282 0.000163827
0.000180821 0.000306116 0.000170494
6.60787e-05 -0.000374239 0.000173795
-0.000294386 0.000227459 0.000174657
0.000376337 3.05235e-05 0.000175148
-0.000253147 -0.000278496 0.000171147
-9.8075e-06 0.000365174 0.000168693
0.000245178 -0.000243432 0.000170986
-0.000327035 -2.4561e-06 0.000160116
0.00023211 0.000225504 0.000161093
1.3339e-05 -0.000286754 0.000143676
-0.000197479 0.000200802 0.000157336
0.000267575 4.99289e-06 0.000143971
-0.00015767 -0.000185005 0.000137953
-2.61897e-05 0.000224222 0.000135168
0.000175825 -0.000135498 0.00013059
-0.000207983 -2.80877e-05 0.000131404
9.73578e-05 0.000174058 0.000112843
4.0989e-05 -0.000190406 0.000123783
-0.000167928 8.92789e-05 0.000112108
0.000169486 6.64393e-05 0.000112733
-7.55988e-05 -0.000164536 0.000113785
-7.947e-05 0.000167641 0.000100983
0.000160893 -6.9665e-05 0.000117057
-0.000159121 -9.7116e-05 9.78641e-05
5.00571e-05 0.000180676 9.9975e-05
9.88953e-05 -0.000160255 9.77263e-05
-0.000169045 5.47159e-05 0.00011077
0.000164569 9.98314e-05 8.91261e-05
-4.25539e-05 -0.000193007 9.06435e-05
-8.87347e-05 0.000166405 9.98022e-05
0.000200663 -4.64035e-05 9.13322e-05
-0.000178217 -8.96105e-05 9.38989e-05
5.71615e-05 0.000198727 9.19181e-05
9.3381e-05 -0.000185371 8.46169e-05
-0.000199316 6.84238e-05 7.82237e-05
0.000196144 9.55578e-05 8.09731e-05
-8.70286e-05 -0.000186718 8.61668e-05
-7.44944e-05 0.000200443 8.26182e-05
0.00017387 -0.000105732 8.63648e-05
-0.000214301 -6.95712e-05 7.55794e-05
0.000120534 0.000169929 8.3568e-05
2.77003e-05 -0.000206754 8.15392e-05
-0.000175695 0.000130887 7.84986e-05
0.000213894 1.9892e-05 7.68523e-05
-0.000145744 -0.00016146 6.81237e-05
-3.42266e-07 0.000216106 7.25152e-05
0.000143689 -0.000162441 7.6963e-05
-0.000203989 3.73845e-05 7.70139e-05
0.000175594 0.000120382 7.47815e-05
-4.9561e-05 -0.00020794 6.93541e-05
-0.0001041 0.000185735 6.54526e-05
0.000203586 -6.97486e-05 5.11654e-05
-0.000193436 -7.03674e-05 6.40751e-05
8.95745e-05 0.000194794 5.13933e-05
6.40449e-05 -0.000205217 5.30458e-05
-0.000173332 0.000114987 5.60661e-05
0.000204074 2.17903e-05 5.54421e-05
-0.000129504 -0.000163408 4.9212e-05
4.03025e-06 0.000205539 5.52545e-05
0.000144356 -0.000146775 5.37835e-05
-0.000209076 1.30681e-05 4.08187e-05
0.000164941 0.00012267 4.48776e-05
-3.49533e-05 -0.000206744 4.30576e-05
-9.98108e-05 0.000178733 4.35893e-05
0.000196657 -6.14126e-05 3.72354e-05
-0.000190207 -8.5306e-05 3.73548e-05
8.05504e-05 0.000186076 2.80783e-05
5.37515e-05 -0.000194432 2.52748e-05
-0.000177314 0.000102105 2.8804e-05
0.00019975 4.91882e-05 2.65692e-05
-0.00012934 -0.000157744 2.32089e-05
-3.12496e-05 0.000203999 1.58226e-05
0.000158525 -0.000135227 2.01061e-05
-0.000204182 -4.18337e-06 1.57209e-05
0.000155221 0.000134669 1.33958e-05
-2.9765e-05 -0.000201062 1.47288e-05
-0.000122408 0.00016578 1.24307e-05
0.000197029 -4.84428e-05 5.92195e-06
-0.000180315 -9.79882e-05 5.8162e-06
8.01552e-05 0.000189236 1.77234e-07
7.34537e-05 -0.000189697 -3.16985e-06
-0.000180545 0.000100681 -3.33014e-06
0.000195804 4.98489e-05 -1.14146e-06
-0.000111588 -0.000169939 -8.15426e-06
-1.34573e-05 0.000202575 -7.63838e-06
0.000144135 -0.000147334 -8.25452e-06
-0.000206852 1.38254e-05 -1.49524e-05
0.000161591 0.000133869 -1.44011e-05
-1.98863e-05 -0.000205148 -1.23703e-05
-0.000107787 0.000174041 -1.84641e-05
0.000199641 -6.30997e-05 -2.67721e-05
-0.000180258 -9.81586e-05 -2.38756e-05
7.81165e-05 0.0001906 -3.15512e-05
6.66632e-05 -0.000195633 -3.16628e-05
-0.000180518 9.93359e-05 -2.86214e-05
0.000205877 4.26501e-05 -3.22963e-05
-0.000118543 -0.000167549 -3.82961e-05
-1.76399e-05 0.000209448 -3.91653e-05
0.000159018 -0.000135311 -4.52924e-05
-0.000206794 -8.20357e-07 -4.79257e-05
0.000144651 0.000142605 -4.21055e-05
-2.53405e-05 -0.000209003 -4.80729e-05
-0.000125044 0.000164728 -5.33611e-05
0.000203371 -4.31043e-05 -6.12092e-05
-0.0001898 -9.3609e-05 -5.44433e-05
6.83787e-05 0.000198187 -5.71261e-05
7.96104e-05 -0.000194135 -5.73579e-05
-0.000190317 7.97355e-05 -5.96081e-05
0.000197981 6.0467e-05 -6.37338e-05
-0.000118752 -0.000179971 -6.87511e-05
-4.27253e-05 0.000202338 -6.97936e-05
0.000164922 -0.000139109 -5.90669e-05
-0.000212761 -1.40408e-05 -7.16008e-05
0.000154392 0.000151313 -6.66939e-05
-1.5139e-05 -0.000217556 -6.57403e-05
-0.00013457 0.000176204 -6.81992e-05
0.000218188 -3.95124e-05 -6.32966e-05
-0.000176264 -0.000120734 -7.85646e-05
5.46601e-05 0.000213191 -7.43991e-05
0.000104308 -0.000192206 -7.14948e-05
-0.000203821 7.57178e-05 -7.36176e-05
0.000201196 8.31077e-05 -8.24237e-05
-9.27036e-05 -0.000197098 -7.38375e-05
-7.22914e-05 0.000194052 -8.90988e-05
0.000182955 -8.11978e-05 -9.41004e-05
-0.000196591 -5.7998e-05 -8.65789e-05
0.00010612 0.000177364 -8.72361e-05
5.21186e-05 -0.000186938 -9.93608e-05
-0.000168493 0.000104868 -9.81429e-05
0.000189288 4.59954e-05 -9.92141e-05
-0.00011806 -0.000161617 -9.01577e-05
-3.52743e-05 0.000180962 -0.000103647
0.000155498 -0.000106681 -9.83558e-05
-0.000188246 -2.75769e-05 -9.6854e-05
0.000106311 0.000149132 -0.000102655
3.94858e-05 -0.000176584 -0.00011061
-0.000146019 0.000117828 -9.63226e-05
0.000184881 2.12021e-05 -9.89766e-05
-0.00010626 -0.000149843 -9.96204e-05
-4.6843e-05 0.000174114 -0.000112026
0.000151348 -0.000112966 -9.735e-05
-0.000177685 -5.25259e-05 -0.000106514
8.60449e-05 0.000172306 -0.00010495
7.53699e-05 -0.000177649 -0.000118663
-0.000184481 7.58139e-05 -0.0001132
0.000191076 9.13271e-05 -0.000116286
-5.28325e-05 -0.000214904 -0.000130368
-0.000117173 0.000197156 -0.000128076
0.000243837 -4.9725e-05 -0.000129735
-0.00021342 -0.000150356 -0.000138387
3.83561e-05 0.000269509 -0.000149282
0.000177197 -0.000236516 -0.000147686
-0.000306447 3.77523e-05 -0.000152508
0.000249254 0.000220937 -0.000181138
-3.73433e-05 -0.00034316 -0.000174124
-0.000226481 0.000290198 -0.000175065
0.000357506 -5.54297e-05 -0.000179735
-0.000314689 -0.000212357 -0.00017648
9.10085e-05 0.000386901 -0.000177728
0.000178607 -0.000342345 -0.000169231
-0.000350813 0.000130345 -0.000171824
0.000351691 0.000120732 -0.000157826
-0.000169224 -0.000278761 -0.000163741
-2.1476e-05 0.000283425 -0.000155522
0.000150382 -0.000184567 -0.000156603
-0.000155974 9.35564e-05 -0.000152151
0.00014868 -7.59631e-05 -0.000148597
-0.000196111 6.76218e-05 -0.000162768
0.000291624 2.10376e-05 -0.000173315
-0.000356658 -0.000216607 -0.000201273
0.000171341 0.000472469 -0.00020348
0.000205996 -0.000523236 -0.00020836
-0.000514658 0.000207666 -0.000192616
0.000372153 0.000245886 -0.000173686
3.26937e-05 -0.000192943 -0.000185886
0.000197456 -0.000234122 -0.000256103
-0.000220744 0.000534709 -0.000179084
0.000130708 0.000292731 -0.00025723
0.00017718 -0.000379875 -0.000258537
-0.000386785 -0.000258075 -0.000265492
SCALARS mass float 1
LOOKUP_TABLE default
1
1
1
1
1
1
1
1
1
1
1
1
1
1
1
1
1
1
1
1
1
1
1
1
1
1
1
1
1
1
1
1
1
1
1
1
1
1
1
1
1
1
1
1
1
1
1
1
1
1
1
1
1
1
1
1
1
1
1
1
1
1
1
1
1
1
1
1
1
1
1
1
1
1
1
1
1
1
1
1
1
1
1
1
1
1
1
1
1
1
1
1
1
1
1
1
1
1
1
1
1
1
1
1
1
1
1
1
1
1
1
1
1
1
1
1
1
1
1
1
1
1
1
1
1
1
1
1
1
1
1
1
1
1
1
1
1
1
1
1
1
1
1
1
1
1
1
1
1
1
1
1
1
1
1
1
1
1
1
1
1
1
1
1
1
1
1
1
1
1
1
1
1
1
1
1
1
1
1
1
1
1
1
1
1
1
1
1
1
1
1
1
1
1
1
1
1
1
1
1
