# vtk DataFile Version 3.0
Molecular Dynamics Particle Data
ASCII
DATASET POLYDATA
POINTS 2 float
309.918 0 0
-308.896 0 0
VERTICES 2 4
1 0
1 1
POINT_DATA 2
VECTORS velocity float
476.4 0 0
-476.4 0 0
VECTORS force float
3.90659e-22 0 0
-3.90659e-22 0 0
SCALARS mass float 1
LOOKUP_TABLE default
5
5
