# vtk DataFile Version 3.0
Molecular Dynamics Particle Data
ASCII
DATASET POLYDATA
POINTS 150 float
0.437338 0.437169 0.43715
0.434451 0.434265 0.572176
0.433797 0.433601 0.691909
0.433797 0.433601 0.808091
0.434451 0.434265 0.927823
0.437338 0.437169 1.06285
0.435037 0.572202 0.434252
0.431683 0.570979 0.570958
0.430945 0.570583 0.691532
0.430945 0.570583 0.808468
0.431683 0.570979 0.929042
0.435037 0.572202 1.06575
0.434456 0.691918 0.43359
0.431008 0.691538 0.570563
0.430242 0.691409 0.691402
0.430242 0.691409 0.808598
0.431009 0.691538 0.929438
0.434456 0.691918 1.06641
0.434461 0.808088 0.433591
0.431016 0.80847 0.570563
0.430249 0.8086 0.691402
0.430249 0.8086 0.808598
0.431016 0.80847 0.929437
0.434461 0.808088 1.06641
0.435095 0.927813 0.434256
0.431749 0.92904 0.570961
0.431017 0.929438 0.691533
0.431017 0.929438 0.808468
0.431749 0.92904 0.92904
0.435095 0.927813 1.06574
0.437963 1.06284 0.437161
0.435095 1.06574 0.572187
0.434462 1.06641 0.691912
0.434462 1.06641 0.808086
0.435095 1.06574 0.927813
0.437963 1.06284 1.06284
0.574522 0.434435 0.434293
0.573491 0.431072 0.570985
0.573157 0.430316 0.691541
0.573157 0.430316 0.808459
0.573491 0.431072 0.929015
0.574522 0.434435 1.06571
0.579825 0.571186 0.431039
0.578858 0.569833 0.569695
0.578578 0.569395 0.691146
0.578578 0.569395 0.808854
0.578858 0.569833 0.930305
0.579825 0.571186 1.06896
0.579905 0.691609 0.430302
0.57896 0.691195 0.569259
0.57868 0.691052 0.691004
0.57868 0.691052 0.808996
0.57896 0.691195 0.930741
0.579905 0.691609 1.0697
0.579919 0.80844 0.430305
0.578977 0.808863 0.56926
0.5787 0.80901 0.691005
0.5787 0.80901 0.808995
0.578977 0.808863 0.93074
0.579919 0.80844 1.06969
0.580155 0.928928 0.431063
0.579248 0.930297 0.569707
0.578982 0.930743 0.69115
0.578982 0.930743 0.80885
0.579248 0.930297 0.930293
0.580155 0.928928 1.06894
0.580957 1.06558 0.434424
0.580155 1.06894 0.571075
0.579923 1.0697 0.691572
0.579923 1.0697 0.808428
0.580155 1.06894 0.928925
0.580957 1.06558 1.06558
0.700632 0.43445 0.433823
0.70078 0.431058 0.570722
0.700806 0.430302 0.691457
0.700806 0.430302 0.808543
0.70078 0.431058 0.929277
0.700632 0.43445 1.06618
0.719125 0.571408 0.430969
0.719874 0.570093 0.569662
0.720108 0.569667 0.691137
0.720108 0.569667 0.808863
0.719874 0.570093 0.930338
0.719125 0.571408 1.06903
0.720078 0.691745 0.430293
0.721011 0.691353 0.569253
0.721286 0.691218 0.691003
0.721286 0.691218 0.808998
0.721011 0.691353 0.930748
0.720078 0.691745 1.06971
0.720066 0.8085 0.430302
0.721005 0.808936 0.569259
0.721281 0.809086 0.691005
0.721281 0.809086 0.808996
0.721005 0.808936 0.930741
0.720066 0.8085 1.0697
0.719842 0.928944 0.431063
0.720748 0.930317 0.569706
0.721014 0.930764 0.69115
0.721014 0.930764 0.80885
0.720748 0.930317 0.930293
0.719842 0.928944 1.06894
0.719043 1.06558 0.434424
0.719844 1.06894 0.571075
0.720077 1.0697 0.691572
0.720077 1.0697 0.808428
0.719844 1.06894 0.928925
0.719043 1.06558 1.06558
0.827324 0.435935 0.43453
0.828643 0.432927 0.571128
0.829054 0.432212 0.691589
0.829054 0.432212 0.808411
0.828643 0.432927 0.928872
0.827324 0.435935 1.06547
0.862003 0.57371 0.433745
0.864722 0.572771 0.570758
0.865332 0.572451 0.69147
0.865332 0.572451 0.808531
0.864721 0.572771 0.929243
0.862003 0.57371 1.06626
0.86575 0.692882 0.433567
0.869233 0.692662 0.570535
0.870005 0.692565 0.691393
0.870005 0.692565 0.808607
0.869233 0.692662 0.929464
0.86575 0.692882 1.06643
0.865524 0.808658 0.433576
0.868967 0.809131 0.570552
0.869733 0.809279 0.691398
0.869733 0.809279 0.808601
0.868967 0.809131 0.929448
0.865524 0.808658 1.06642
0.864904 0.927961 0.434253
0.868249 0.929215 0.570958
0.868981 0.92962 0.691532
0.868981 0.92962 0.808469
0.868249 0.929215 0.929042
0.864904 0.927961 1.06575
0.862037 1.06285 0.437161
0.864904 1.06576 0.572186
0.865537 1.06642 0.691912
0.865537 1.06642 0.808087
0.864905 1.06576 0.927813
0.862037 1.06285 1.06284
0.96409 0.497224 0.438852
0.96729 0.496573 0.572933
0.968036 0.49645 0.692147
0.968036 0.49645 0.807854
0.96729 0.496573 0.927067
0.96409 0.497224 1.06115
VERTICES 150 300
1 0
1 1
1 2
1 3
1 4
1 5
1 6
1 7
1 8
1 9
1 10
1 11
1 12
1 13
1 14
1 15
1 16
1 17
1 18
1 19
1 20
1 21
1 22
1 23
1 24
1 25
1 26
1 27
1 28
1 29
1 30
1 31
1 32
1 33
1 34
1 35
1 36
1 37
1 38
1 39
1 40
1 41
1 42
1 43
1 44
1 45
1 46
1 47
1 48
1 49
1 50
1 51
1 52
1 53
1 54
1 55
1 56
1 57
1 58
1 59
1 60
1 61
1 62
1 63
1 64
1 65
1 66
1 67
1 68
1 69
1 70
1 71
1 72
1 73
1 74
1 75
1 76
1 77
1 78
1 79
1 80
1 81
1 82
1 83
1 84
1 85
1 86
1 87
1 88
1 89
1 90
1 91
1 92
1 93
1 94
1 95
1 96
1 97
1 98
1 99
1 100
1 101
1 102
1 103
1 104
1 105
1 106
1 107
1 108
1 109
1 110
1 111
1 112
1 113
1 114
1 115
1 116
1 117
1 118
1 119
1 120
1 121
1 122
1 123
1 124
1 125
1 126
1 127
1 128
1 129
1 130
1 131
1 132
1 133
1 134
1 135
1 136
1 137
1 138
1 139
1 140
1 141
1 142
1 143
1 144
1 145
1 146
1 147
1 148
1 149
POINT_DATA 150
VECTORS velocity float
-0.148171 -0.149404 -0.149527
-0.154528 -0.155842 -0.0966247
-0.156671 -0.158046 -0.0354115
-0.156671 -0.158046 0.0354078
-0.154528 -0.155842 0.0966242
-0.148171 -0.149404 0.149529
-0.150891 -0.0964751 -0.155931
-0.158388 -0.0997286 -0.0998459
-0.160735 -0.101105 -0.0365062
-0.160735 -0.101105 0.0365064
-0.158388 -0.0997282 0.0998457
-0.150891 -0.0964752 0.155931
-0.152645 -0.035362 -0.158125
-0.160413 -0.0364676 -0.10122
-0.162858 -0.0369324 -0.0369691
-0.162858 -0.0369324 0.0369703
-0.160413 -0.0364676 0.101222
-0.152645 -0.035362 0.158124
-0.152625 0.0353975 -0.158123
-0.160384 0.0365151 -0.101219
-0.162829 0.0369838 -0.0369683
-0.162829 0.0369837 0.0369692
-0.160384 0.0365151 0.10122
-0.152625 0.0353975 0.158121
-0.150598 0.0965733 -0.155913
-0.158055 0.0998388 -0.0998355
-0.16038 0.101223 -0.0365014
-0.16038 0.101223 0.0365026
-0.158055 0.0998386 0.0998358
-0.150598 0.0965735 0.155912
-0.144264 0.149472 -0.14947
-0.150597 0.155913 -0.0965694
-0.15262 0.158121 -0.0353909
-0.15262 0.158121 0.035387
-0.150597 0.155913 0.096571
-0.144264 0.149472 0.149471
-0.0828891 -0.155036 -0.155719
-0.085395 -0.162503 -0.0997088
-0.086482 -0.164972 -0.0364585
-0.0864819 -0.164971 0.0364583
-0.0853948 -0.162503 0.09971
-0.0828892 -0.155036 0.15572
-0.0578044 -0.0988428 -0.162661
-0.0601862 -0.102353 -0.102918
-0.0610404 -0.103844 -0.0375394
-0.0610404 -0.103844 0.0375384
-0.0601862 -0.102353 0.102917
-0.0578044 -0.0988428 0.162662
-0.0574364 -0.0361301 -0.165051
-0.0597078 -0.0373031 -0.1044
-0.0605567 -0.0377986 -0.0380289
-0.0605567 -0.0377985 0.0380298
-0.0597078 -0.0373028 0.104399
-0.0574364 -0.0361301 0.165051
-0.0574345 0.0363848 -0.165041
-0.0596962 0.0375948 -0.104392
-0.0605376 0.0381138 -0.0380271
-0.0605377 0.038114 0.0380273
-0.0596963 0.0375947 0.104392
-0.0574345 0.036385 0.165041
-0.0567205 0.0993194 -0.162563
-0.058882 0.102894 -0.102871
-0.0596849 0.104414 -0.0375234
-0.059685 0.104414 0.0375227
-0.058882 0.102894 0.10287
-0.0567205 0.0993193 0.162563
-0.0547976 0.155114 -0.155111
-0.0567175 0.162566 -0.099301
-0.0574205 0.165042 -0.0363169
-0.0574205 0.165042 0.0363174
-0.0567176 0.162566 0.0993008
-0.0547978 0.155114 0.155111
0.00106963 -0.154695 -0.157189
0.00144387 -0.162294 -0.100551
0.00151039 -0.164752 -0.0367386
0.00151049 -0.164752 0.0367365
0.0014439 -0.162294 0.10055
0.00106946 -0.154695 0.15719
0.0548884 -0.0987153 -0.162847
0.0565239 -0.102148 -0.103014
0.0572095 -0.103613 -0.0375564
0.0572097 -0.103613 0.037558
0.0565239 -0.102148 0.103012
0.0548883 -0.0987153 0.162847
0.0575686 -0.0356869 -0.165072
0.0598223 -0.0367935 -0.104416
0.0606584 -0.0372654 -0.0380355
0.0606585 -0.0372655 0.0380364
0.0598223 -0.0367933 0.104416
0.0575687 -0.0356869 0.165073
0.057379 0.0366703 -0.16505
0.0596292 0.0379267 -0.1044
0.0604661 0.0384605 -0.0380292
0.060466 0.0384605 0.0380299
0.0596293 0.0379266 0.1044
0.057379 0.0366704 0.16505
0.0567034 0.0994186 -0.162566
0.0588576 0.103011 -0.102873
0.059661 0.104538 -0.0375246
0.059661 0.104538 0.0375236
0.0588577 0.103011 0.102872
0.0567034 0.0994185 0.162566
0.0547968 0.155123 -0.155111
0.0567146 0.162578 -0.0993015
0.0574171 0.165055 -0.036317
0.0574173 0.165055 0.0363177
0.0567147 0.162578 0.0993011
0.0547968 0.155123 0.155112
0.0902013 -0.152218 -0.155273
0.0934873 -0.158936 -0.0993597
0.0948986 -0.161326 -0.0363344
0.0948985 -0.161326 0.0363351
0.0934873 -0.158936 0.0993592
0.0902013 -0.152218 0.155272
0.137313 -0.0916691 -0.157564
0.142417 -0.0941118 -0.100544
0.144058 -0.0951551 -0.0367247
0.144058 -0.0951551 0.0367287
0.142417 -0.0941119 0.100545
0.137313 -0.0916691 0.157564
0.153726 -0.0331534 -0.158136
0.161704 -0.033837 -0.101289
0.164189 -0.034179 -0.0369974
0.164189 -0.034179 0.0369971
0.161704 -0.033837 0.101287
0.153726 -0.0331533 0.158134
0.152535 0.0377571 -0.158188
0.16028 0.039226 -0.101268
0.162722 0.0397653 -0.0369872
0.162722 0.0397652 0.0369869
0.16028 0.039226 0.101269
0.152535 0.0377573 0.158189
0.150595 0.0975559 -0.155928
0.158052 0.100972 -0.0998503
0.160376 0.102391 -0.0365078
0.160376 0.102391 0.0365083
0.158052 0.100972 0.0998506
0.150595 0.097556 0.155928
0.144261 0.149548 -0.149472
0.150595 0.156 -0.0965716
0.152617 0.158213 -0.0353911
0.152617 0.158213 0.0353876
0.150595 0.156 0.0965724
0.144261 0.149548 0.149472
0.155479 -0.0107524 -0.146633
0.163283 -0.0128408 -0.0949657
0.165932 -0.0134017 -0.0348219
0.165932 -0.0134018 0.034823
0.163283 -0.0128407 0.0949637
0.155479 -0.0107524 0.146634
VECTORS force float
-0.0481716 -0.0543414 -0.0547778
-0.0483397 -0.0545458 -0.0851315
-0.0497369 -0.0561335 -0.0369473
-0.0497368 -0.0561335 0.0369466
-0.0483397 -0.0545456 0.0851343
-0.0481717 -0.0543415 0.0547749
-0.0361903 -0.0846755 -0.0549228
-0.037275 -0.0843785 -0.084724
-0.0386093 -0.0847815 -0.0362811
-0.0386092 -0.0847814 0.0362819
-0.0372752 -0.084379 0.0847226
-0.0361903 -0.0846755 0.0549222
-0.0366997 -0.0368113 -0.0564834
-0.0378962 -0.0361426 -0.0851325
-0.0392603 -0.0360621 -0.0361884
-0.0392603 -0.0360619 0.0361926
-0.0378959 -0.036142 0.0851302
-0.0366997 -0.0368114 0.0564834
-0.0366903 0.0369527 -0.0564778
-0.0378768 0.0363116 -0.0851303
-0.0392415 0.0362446 -0.0361866
-0.0392414 0.0362445 0.0361914
-0.037877 0.0363109 0.0851259
-0.0366903 0.0369527 0.0564772
-0.0355575 0.0850064 -0.0548717
-0.0365786 0.0847156 -0.0847069
-0.0378736 0.0851342 -0.0362683
-0.0378737 0.0851342 0.0362722
-0.0365786 0.0847162 0.0847034
-0.0355574 0.0850067 0.054872
-0.0348289 0.0546481 -0.0546512
-0.0355559 0.0548731 -0.0849952
-0.0366855 0.056479 -0.0369092
-0.0366852 0.0564789 0.0369147
-0.0355559 0.0548729 0.0849932
-0.0348289 0.054648 0.054647
-0.0460672 -0.05269 -0.0542984
-0.0455972 -0.0529402 -0.0844482
-0.0458122 -0.0546112 -0.036208
-0.0458121 -0.0546111 0.0362112
-0.045597 -0.0529401 0.0844471
-0.0460673 -0.05269 0.0542986
-0.0112545 -0.0834305 -0.0533538
-0.0117917 -0.0828681 -0.0834625
-0.012037 -0.083255 -0.0353919
-0.0120371 -0.083255 0.0353898
-0.0117919 -0.0828679 0.0834641
-0.0112544 -0.0834304 0.053354
-0.011255 -0.0356462 -0.0548986
-0.0115679 -0.0349185 -0.0838394
-0.0118018 -0.0347948 -0.0353118
-0.0118017 -0.0347953 0.035312
-0.011568 -0.0349201 0.0838386
-0.011255 -0.0356462 0.0548997
-0.0115265 0.0363261 -0.0548905
-0.0118524 0.0356519 -0.0838297
-0.0120883 0.0355714 -0.0353142
-0.0120883 0.0355719 0.0353135
-0.0118525 0.0356531 0.0838296
-0.0115265 0.0363256 0.0548907
-0.0113548 0.0839722 -0.053199
-0.0116329 0.0834932 -0.0834157
-0.0118461 0.0839104 -0.035402
-0.0118462 0.0839104 0.0353987
-0.0116329 0.0834934 0.083419
-0.0113547 0.0839728 0.0531986
-0.0110851 0.0530218 -0.0530132
-0.0113475 0.0532071 -0.0839069
-0.0115123 0.0548964 -0.0361049
-0.0115122 0.0548964 0.0361051
-0.0113479 0.0532071 0.0839084
-0.0110851 0.0530217 0.053012
-0.000258495 -0.0499345 -0.0548834
-0.000101261 -0.0504492 -0.0843638
-3.62661e-05 -0.0520465 -0.0360784
-3.60428e-05 -0.0520466 0.0360772
-0.000101415 -0.0504492 0.0843633
-0.00025821 -0.0499346 0.0548833
0.0103306 -0.0862627 -0.0533589
0.00985153 -0.0857175 -0.0834548
0.00987569 -0.0861761 -0.0354066
0.00987581 -0.0861761 0.0354066
0.00985136 -0.0857174 0.0834512
0.0103304 -0.0862628 0.0533604
0.0121396 -0.0355622 -0.0548894
0.0125211 -0.0347685 -0.0838346
0.0127595 -0.0346323 -0.0353131
0.0127596 -0.0346323 0.0353141
0.0125211 -0.0347689 0.0838334
0.0121399 -0.0355623 0.0548923
0.0114217 0.036751 -0.0549072
0.0117396 0.0361067 -0.0838444
0.0119722 0.0360492 -0.0353144
0.011972 0.0360491 0.0353146
0.0117397 0.0361073 0.0838437
0.0114217 0.0367511 0.0549079
0.0113022 0.084322 -0.0532076
0.0115688 0.083885 -0.0834255
0.0117783 0.0843192 -0.0354001
0.0117783 0.0843192 0.0353988
0.0115688 0.0838851 0.0834258
0.0113022 0.084322 0.0532071
0.0110729 0.0530687 -0.0530145
0.0113342 0.0532608 -0.0839085
0.011497 0.0549514 -0.0361053
0.0114972 0.0549514 0.0361059
0.0113345 0.0532607 0.0839095
0.0110728 0.0530686 0.0530134
0.0626626 -0.0493572 -0.0539063
0.0626594 -0.0496744 -0.084383
0.0634021 -0.051355 -0.0363009
0.0634018 -0.0513551 0.0363014
0.0626591 -0.0496747 0.0843803
0.0626623 -0.0493572 0.0539085
-0.0225909 -0.0591912 -0.0590594
-0.0264978 -0.0574085 -0.0862891
-0.0274925 -0.0570844 -0.0366415
-0.0274925 -0.0570843 0.0366452
-0.0264978 -0.0574086 0.0862858
-0.0225905 -0.0591915 0.0590662
0.0397737 -0.0360744 -0.0562883
0.0415497 -0.0351064 -0.0850636
0.043052 -0.0347681 -0.0361912
0.0430522 -0.0347687 0.0361892
0.0415504 -0.0351062 0.0850579
0.0397736 -0.0360734 0.056287
0.0363512 0.0379052 -0.0566275
0.0374884 0.0374752 -0.0852049
0.0388428 0.0374737 -0.036213
0.0388417 0.0374745 0.0362182
0.0374885 0.037475 0.085199
0.0363512 0.0379044 0.0566315
0.035553 0.0884371 -0.0549223
0.0365732 0.0885222 -0.0847484
0.0378676 0.0890046 -0.0362815
0.0378678 0.089004 0.0362826
0.0365732 0.0885229 0.084748
0.035553 0.0884374 0.0549224
0.0348195 0.0550903 -0.0546549
0.0355438 0.0553579 -0.085004
0.0366721 0.0569848 -0.0369085
0.036672 0.0569847 0.0369135
0.0355437 0.0553577 0.0850021
0.0348196 0.0550903 0.0546512
0.0887601 -0.0414033 -0.0561154
0.0928149 -0.044026 -0.0863884
0.0959241 -0.0453558 -0.0377333
0.0959244 -0.0453561 0.0377294
0.0928149 -0.0440256 0.0863872
0.08876 -0.0414032 0.0561188
SCALARS mass float 1
LOOKUP_TABLE default
1
1
1
1
1
1
1
1
1
1
1
1
1
1
1
1
1
1
1
1
1
1
1
1
1
1
1
1
1
1
1
1
1
1
1
1
1
1
1
1
1
1
1
1
1
1
1
1
1
1
1
1
1
1
1
1
1
1
1
1
1
1
1
1
1
1
1
1
1
1
1
1
1
1
1
1
1
1
1
1
1
1
1
1
1
1
1
1
1
1
1
1
1
1
1
1
1
1
1
1
1
1
1
1
1
1
1
1
1
1
1
1
1
1
1
1
1
1
1
1
1
1
1
1
1
1
1
1
1
1
1
1
1
1
1
1
1
1
1
1
1
1
1
1
1
1
1
1
1
1
