# vtk DataFile Version 3.0
Molecular Dynamics Particle Data
ASCII
DATASET POLYDATA
POINTS 150 float
0.391351 0.390508 0.390434
0.386565 0.385686 0.540706
0.385237 0.384325 0.680453
0.385237 0.384325 0.819546
0.386565 0.385686 0.959293
0.391351 0.390508 1.10957
0.388719 0.540794 0.385631
0.383078 0.538612 0.538541
0.381605 0.537804 0.679763
0.381605 0.537804 0.820237
0.383078 0.538612 0.961459
0.388719 0.540794 1.11437
0.387606 0.680482 0.384275
0.381788 0.679787 0.537735
0.380256 0.679522 0.679498
0.380256 0.679522 0.820502
0.381788 0.679787 0.962266
0.387606 0.680482 1.11573
0.387617 0.819541 0.384277
0.381804 0.820242 0.537736
0.380272 0.820509 0.679499
0.380272 0.820509 0.820501
0.381804 0.820242 0.962264
0.387617 0.819541 1.11572
0.388884 0.959265 0.385642
0.383266 0.961455 0.538548
0.381807 0.962267 0.679766
0.381807 0.962267 0.820235
0.383266 0.961455 0.961453
0.388884 0.959265 1.11436
0.393678 1.10953 0.390467
0.388885 1.11436 0.540737
0.387619 1.11572 0.680463
0.38762 1.11572 0.819535
0.388885 1.11436 0.959263
0.393678 1.10953 1.10953
0.548486 0.386175 0.385763
0.546712 0.380586 0.538618
0.54605 0.379051 0.679788
0.54605 0.379051 0.820212
0.546712 0.380586 0.961383
0.548486 0.386175 1.11424
0.56229 0.539098 0.380486
0.560584 0.536718 0.536401
0.560039 0.535835 0.679089
0.560039 0.535835 0.820911
0.560584 0.536718 0.963599
0.562289 0.539098 1.11951
0.56246 0.679973 0.378997
0.560817 0.679225 0.535522
0.560275 0.678939 0.678804
0.560275 0.678939 0.821197
0.560817 0.679225 0.964478
0.56246 0.679973 1.121
0.562463 0.820176 0.379003
0.560826 0.820947 0.535526
0.560289 0.821246 0.678805
0.560289 0.821246 0.821195
0.560826 0.820947 0.964474
0.562463 0.820176 1.121
0.562917 0.961168 0.380544
0.561348 0.963587 0.536427
0.560834 0.964488 0.679097
0.560834 0.964488 0.820902
0.561348 0.963587 0.963572
0.562917 0.961168 1.11946
0.564312 1.11388 0.386124
0.562919 1.11946 0.538844
0.562471 1.121 0.679863
0.562471 1.121 0.820137
0.562919 1.11946 0.961156
0.564312 1.11388 1.11388
0.70096 0.386429 0.384846
0.701226 0.380758 0.538113
0.701274 0.379229 0.679624
0.701274 0.379229 0.820374
0.701226 0.380758 0.961886
0.70096 0.386428 1.11515
0.735753 0.539237 0.380362
0.73698 0.536919 0.536339
0.737418 0.536053 0.679073
0.737418 0.536053 0.820928
0.73698 0.536919 0.96366
0.735753 0.539237 1.11964
0.737594 0.680237 0.378982
0.739222 0.679534 0.535511
0.739755 0.679263 0.678799
0.739755 0.679263 0.821201
0.739222 0.679534 0.964489
0.737594 0.680237 1.12102
0.737503 0.820333 0.378997
0.739131 0.82113 0.535522
0.739666 0.821437 0.678803
0.739666 0.821437 0.821197
0.739131 0.82113 0.964478
0.737503 0.820333 1.121
0.737071 0.961226 0.380543
0.738638 0.963656 0.536426
0.739152 0.96456 0.679097
0.739152 0.96456 0.820903
0.738638 0.963656 0.963573
0.737071 0.961226 1.11946
0.735688 1.11388 0.386124
0.737079 1.11946 0.538844
0.737527 1.12101 0.679863
0.737527 1.12101 0.820137
0.737079 1.11946 0.961156
0.735688 1.11388 1.11388
0.856147 0.388713 0.386153
0.858451 0.383692 0.538866
0.859301 0.382222 0.679871
0.859301 0.382222 0.820129
0.858451 0.383692 0.961133
0.856147 0.388713 1.11385
0.900962 0.545074 0.384391
0.905098 0.543446 0.538045
0.906161 0.542824 0.679615
0.906161 0.542824 0.820387
0.905098 0.543446 0.961957
0.900963 0.545074 1.11561
0.913064 0.682234 0.384256
0.919002 0.681835 0.53769
0.920557 0.681649 0.679482
0.920557 0.681649 0.820518
0.919002 0.681835 0.962309
0.913064 0.682234 1.11574
0.912327 0.820812 0.384237
0.918131 0.821715 0.537708
0.919662 0.822024 0.679489
0.919661 0.822024 0.82051
0.918131 0.821715 0.962293
0.912327 0.820812 1.11576
0.911115 0.959825 0.385632
0.916732 0.9621 0.538539
0.918191 0.962931 0.679763
0.918191 0.962931 0.820238
0.916732 0.9621 0.961461
0.911115 0.959826 1.11437
0.90632 1.10959 0.390466
0.911113 1.11442 0.540735
0.912378 1.11579 0.680463
0.912378 1.11579 0.819535
0.911114 1.11442 0.959264
0.90632 1.10959 1.10953
1.01487 0.491917 0.393008
1.02051 0.490593 0.541939
1.02214 0.490274 0.680855
1.02214 0.490274 0.819145
1.02051 0.490593 0.95806
1.01487 0.491917 1.10699
VERTICES 150 300
1 0
1 1
1 2
1 3
1 4
1 5
1 6
1 7
1 8
1 9
1 10
1 11
1 12
1 13
1 14
1 15
1 16
1 17
1 18
1 19
1 20
1 21
1 22
1 23
1 24
1 25
1 26
1 27
1 28
1 29
1 30
1 31
1 32
1 33
1 34
1 35
1 36
1 37
1 38
1 39
1 40
1 41
1 42
1 43
1 44
1 45
1 46
1 47
1 48
1 49
1 50
1 51
1 52
1 53
1 54
1 55
1 56
1 57
1 58
1 59
1 60
1 61
1 62
1 63
1 64
1 65
1 66
1 67
1 68
1 69
1 70
1 71
1 72
1 73
1 74
1 75
1 76
1 77
1 78
1 79
1 80
1 81
1 82
1 83
1 84
1 85
1 86
1 87
1 88
1 89
1 90
1 91
1 92
1 93
1 94
1 95
1 96
1 97
1 98
1 99
1 100
1 101
1 102
1 103
1 104
1 105
1 106
1 107
1 108
1 109
1 110
1 111
1 112
1 113
1 114
1 115
1 116
1 117
1 118
1 119
1 120
1 121
1 122
1 123
1 124
1 125
1 126
1 127
1 128
1 129
1 130
1 131
1 132
1 133
1 134
1 135
1 136
1 137
1 138
1 139
1 140
1 141
1 142
1 143
1 144
1 145
1 146
1 147
1 148
1 149
POINT_DATA 150
VECTORS velocity float
-0.156831 -0.160116 -0.16035
-0.163125 -0.166418 -0.109891
-0.1654 -0.16878 -0.039311
-0.1654 -0.16878 0.0393076
-0.163125 -0.166418 0.109891
-0.156831 -0.160116 0.160352
-0.156575 -0.109637 -0.166605
-0.164305 -0.112801 -0.113008
-0.166793 -0.11414 -0.0403377
-0.166793 -0.11414 0.0403381
-0.164305 -0.112801 0.113008
-0.156575 -0.109637 0.166605
-0.158331 -0.0392277 -0.168949
-0.166344 -0.0402647 -0.114345
-0.168931 -0.0407084 -0.0407794
-0.168931 -0.0407083 0.0407812
-0.166344 -0.0402645 0.114346
-0.158331 -0.0392277 0.168948
-0.158314 0.039303 -0.168946
-0.166317 0.0403554 -0.114343
-0.168905 0.0408054 -0.0407787
-0.168905 0.0408054 0.0407802
-0.166317 0.0403553 0.114343
-0.158314 0.0393031 0.168944
-0.156177 0.109823 -0.166574
-0.163853 0.113001 -0.112994
-0.166312 0.11435 -0.0403325
-0.166312 0.11435 0.0403341
-0.163853 0.113001 0.112994
-0.156177 0.109823 0.166574
-0.149679 0.160268 -0.160267
-0.156176 0.166575 -0.109817
-0.158309 0.168945 -0.0392862
-0.158308 0.168945 0.039284
-0.156176 0.166575 0.109817
-0.149679 0.160268 0.160267
-0.0887852 -0.165112 -0.166217
-0.0912632 -0.172448 -0.112826
-0.0923544 -0.175086 -0.0402822
-0.0923543 -0.175086 0.0402827
-0.091263 -0.172448 0.112827
-0.0887853 -0.165112 0.166219
-0.0585625 -0.111886 -0.172739
-0.0611095 -0.115253 -0.115845
-0.0620078 -0.116707 -0.0412805
-0.0620077 -0.116707 0.0412792
-0.0611096 -0.115253 0.115845
-0.0585625 -0.111886 0.172739
-0.0583629 -0.0398484 -0.17528
-0.0607371 -0.0409464 -0.117289
-0.0616278 -0.041416 -0.0417558
-0.0616278 -0.041416 0.0417564
-0.0607371 -0.0409464 0.117289
-0.0583629 -0.0398484 0.17528
-0.0584284 0.040247 -0.175269
-0.0607966 0.0413923 -0.117281
-0.06168 0.0418922 -0.0417539
-0.06168 0.0418925 0.0417539
-0.0607968 0.0413924 0.11728
-0.0584283 0.0402472 0.175269
-0.0576841 0.112386 -0.172616
-0.0599426 0.115838 -0.115796
-0.0607837 0.117324 -0.0412666
-0.0607838 0.117324 0.0412655
-0.0599427 0.115838 0.115796
-0.0576841 0.112386 0.172617
-0.0556594 0.165329 -0.165323
-0.0576797 0.172622 -0.112349
-0.058411 0.175272 -0.0401318
-0.058411 0.175272 0.0401322
-0.0576799 0.172622 0.112349
-0.0556596 0.165329 0.165323
0.00111582 -0.16387 -0.16768
0.00154123 -0.171419 -0.113591
0.00162276 -0.174035 -0.0405423
0.00162288 -0.174035 0.04054
0.00154123 -0.171419 0.11359
0.00111572 -0.163871 0.167681
0.0554209 -0.112543 -0.17292
0.0569844 -0.115815 -0.115938
0.0576646 -0.117255 -0.0413055
0.0576648 -0.117255 0.0413067
0.0569844 -0.115815 0.115936
0.0554207 -0.112543 0.17292
0.0586747 -0.0394528 -0.175299
0.0610439 -0.0404651 -0.117302
0.0619205 -0.0409076 -0.0417618
0.0619207 -0.0409076 0.0417627
0.0610439 -0.040465 0.117302
0.0586748 -0.0394529 0.175301
0.0583483 0.0405813 -0.175283
0.0607039 0.041776 -0.11729
0.0615824 0.0422946 -0.0417564
0.0615823 0.0422945 0.041757
0.060704 0.041776 0.11729
0.0583483 0.0405813 0.175283
0.0576556 0.112561 -0.172622
0.0599047 0.116039 -0.1158
0.0607456 0.117534 -0.0412676
0.0607456 0.117534 0.0412664
0.0599048 0.11604 0.115799
0.0576556 0.112561 0.172622
0.055655 0.165355 -0.165323
0.0576728 0.172652 -0.11235
0.0584033 0.175303 -0.0401321
0.0584036 0.175303 0.0401328
0.0576729 0.172652 0.11235
0.055655 0.165355 0.165324
0.0995842 -0.160962 -0.165643
0.102874 -0.167637 -0.112475
0.104352 -0.170202 -0.0401718
0.104352 -0.170202 0.0401725
0.102874 -0.167637 0.112474
0.0995841 -0.160962 0.165643
0.120005 -0.0961497 -0.169982
0.124637 -0.098469 -0.114319
0.126112 -0.0994877 -0.0407109
0.126113 -0.0994876 0.0407151
0.124637 -0.0984692 0.11432
0.120006 -0.0961497 0.169984
0.16034 -0.0359855 -0.168927
0.16869 -0.0365618 -0.114397
0.171348 -0.0368387 -0.0408054
0.171348 -0.0368388 0.0408046
0.16869 -0.0365617 0.114394
0.16034 -0.0359852 0.168924
0.158139 0.041565 -0.169045
0.166116 0.0429936 -0.114404
0.168699 0.0435318 -0.0408006
0.168699 0.0435318 0.0408012
0.166116 0.0429937 0.114404
0.158139 0.0415649 0.169047
0.156176 0.111468 -0.166603
0.163852 0.114866 -0.113017
0.16631 0.116255 -0.0403392
0.16631 0.116255 0.0403398
0.163852 0.114866 0.113017
0.156176 0.111469 0.166603
0.149671 0.160513 -0.160269
0.156168 0.16684 -0.10982
0.158299 0.169219 -0.0392865
0.158299 0.169219 0.0392845
0.156168 0.16684 0.10982
0.149672 0.160513 0.160269
0.18307 -0.0244178 -0.157238
0.191226 -0.0265872 -0.108249
0.194222 -0.027223 -0.0387343
0.194222 -0.0272231 0.0387342
0.191226 -0.026587 0.108247
0.18307 -0.0244178 0.157239
VECTORS force float
-0.0158888 -0.0225146 -0.0227959
-0.0156147 -0.0217897 -0.0179169
-0.0155014 -0.0216552 -0.00160061
-0.0155013 -0.0216552 0.00160204
-0.0156146 -0.0217894 0.0179166
-0.0158889 -0.0225147 0.0227944
-0.00859686 -0.0176687 -0.0220363
-0.00924753 -0.0176806 -0.0179245
-0.00922831 -0.0174426 -0.00168966
-0.00922828 -0.0174426 0.00168963
-0.00924764 -0.0176813 0.0179241
-0.00859684 -0.0176687 0.0220364
-0.0083975 -0.00151639 -0.0218782
-0.00904957 -0.00160221 -0.0176832
-0.00903143 -0.00160538 -0.00169659
-0.00903143 -0.00160535 0.00169732
-0.00904946 -0.00160183 0.0176825
-0.00839749 -0.00151644 0.0218789
-0.00841967 0.00162628 -0.0218755
-0.00906739 0.00171357 -0.017682
-0.00905088 0.00172097 -0.00169732
-0.00905087 0.00172097 0.00169805
-0.00906747 0.00171355 0.0176806
-0.00841966 0.00162644 0.0218758
-0.00848024 0.0179142 -0.022005
-0.00909291 0.0179292 -0.01792
-0.0090669 0.0176907 -0.00169039
-0.00906693 0.0176908 0.00169046
-0.00909291 0.0179295 0.01792
-0.0084802 0.0179142 0.0220053
-0.00797306 0.0227363 -0.0227355
-0.00847934 0.0220072 -0.0179086
-0.00841803 0.0218773 -0.00160044
-0.00841781 0.0218772 0.00160443
-0.00847942 0.0220071 0.0179054
-0.00797312 0.0227363 0.0227345
-0.00576554 -0.0203066 -0.0215204
-0.00593043 -0.0196187 -0.0178467
-0.00591094 -0.0195121 -0.00168042
-0.00591095 -0.0195121 0.00168179
-0.00593048 -0.0196187 0.0178467
-0.00576565 -0.0203066 0.02152
0.000985516 -0.0180873 -0.0200904
0.000479589 -0.017971 -0.0177307
0.000380139 -0.0177425 -0.00174147
0.000380129 -0.0177423 0.00174095
0.000479543 -0.0179708 0.0177311
0.000985525 -0.0180872 0.0200904
0.000149318 -0.00147778 -0.0199722
-0.000161442 -0.00154787 -0.0175034
-0.000248682 -0.00155015 -0.00176866
-0.000248623 -0.00155046 0.00176791
-0.000161432 -0.0015481 0.0175038
0.000149358 -0.00147765 0.0199726
-6.54625e-06 0.00176664 -0.0199717
-0.000327702 0.00185807 -0.0175035
-0.000413584 0.00186825 -0.00176787
-0.000413576 0.00186835 0.00176762
-0.000327737 0.00185795 0.0175033
-6.5436e-06 0.00176622 0.0199721
5.87045e-05 0.0178346 -0.0200706
-0.000242025 0.0177881 -0.0177404
-0.000322044 0.0175592 -0.00174667
-0.000322064 0.0175593 0.00174613
-0.000242011 0.0177883 0.0177411
5.87442e-05 0.0178349 0.0200704
0.000392716 0.0208824 -0.020871
6.21729e-05 0.0200815 -0.0177859
2.31772e-06 0.0199797 -0.00166902
2.39197e-06 0.0199797 0.0016687
6.21338e-05 0.0200814 0.0177871
0.000392733 0.0208823 0.0208704
5.99787e-05 -0.0174937 -0.0211936
0.000243877 -0.0170751 -0.0176483
0.000274703 -0.0169716 -0.00168379
0.000274665 -0.0169717 0.00168395
0.000243799 -0.017075 0.0176482
6.01351e-05 -0.0174937 0.0211931
-0.00184237 -0.0203083 -0.0200845
-0.00189297 -0.0200787 -0.0177301
-0.00189944 -0.0198536 -0.0017628
-0.00189944 -0.0198537 0.0017612
-0.00189307 -0.0200787 0.0177308
-0.00184245 -0.0203084 0.0200847
0.000164261 -0.00172816 -0.0199734
0.000494359 -0.00173919 -0.0174961
0.000573384 -0.00173051 -0.00176528
0.000573473 -0.00173051 0.00176511
0.000494336 -0.00173928 0.0174966
0.00016432 -0.00172822 0.0199743
-5.22192e-05 0.001783 -0.019982
0.000266202 0.00188232 -0.0175057
0.000352884 0.00190004 -0.00176881
0.000352789 0.00190006 0.00176832
0.000266223 0.00188247 0.0175056
-5.22411e-05 0.001783 0.0199822
-8.27041e-05 0.0179823 -0.0200769
0.000214773 0.0179507 -0.0177422
0.000293744 0.0177236 -0.00174649
0.000293741 0.0177237 0.00174616
0.000214768 0.0179509 0.0177424
-8.27057e-05 0.0179823 0.0200767
-0.000403013 0.02094 -0.0208717
-7.36604e-05 0.0201401 -0.0177862
-1.42277e-05 0.0200395 -0.00166921
-1.41496e-05 0.0200395 0.00166916
-7.36355e-05 0.02014 0.0177873
-0.000403015 0.02094 0.0208709
0.0131453 -0.0158282 -0.0211495
0.0132494 -0.0155769 -0.0178845
0.0132179 -0.0155235 -0.00170031
0.0132179 -0.0155235 0.00169957
0.0132494 -0.015577 0.0178844
0.0131452 -0.0158282 0.0211503
-0.0700734 0.0043463 -0.0284961
-0.0686912 0.00336888 -0.0200675
-0.0680976 0.00294252 -0.0022545
-0.0680975 0.00294246 0.0022548
-0.068691 0.00336888 0.0200692
-0.0700734 0.0043465 0.0284988
0.0113553 0.0031312 -0.0218431
0.0122438 0.0029261 -0.017645
0.0122739 0.00292295 -0.00168598
0.012274 0.00292292 0.0016841
0.0122441 0.00292592 0.0176438
0.0113552 0.00313138 0.0218428
0.00820245 0.00119156 -0.0219552
0.00882373 0.00130174 -0.0176978
0.00880445 0.00135285 -0.00170171
0.008804 0.00135303 0.00170307
0.0088238 0.00130182 0.0176969
0.00820247 0.00119113 0.0219562
0.00849505 0.0189714 -0.0220479
0.00911162 0.0191135 -0.0179326
0.00908482 0.0188746 -0.0016903
0.00908492 0.0188746 0.00169037
0.00911162 0.0191136 0.0179326
0.00849502 0.0189715 0.0220479
0.00795121 0.023346 -0.0227345
0.00845445 0.0226286 -0.0179082
0.00839194 0.0225037 -0.00160105
0.00839192 0.0225036 0.00160429
0.00845442 0.0226286 0.0179063
0.00795124 0.0233461 0.022733
0.0857928 -0.0375474 -0.0204979
0.0838764 -0.0360158 -0.0168443
0.083133 -0.0353378 -0.00113578
0.0831332 -0.0353379 0.00113253
0.0838762 -0.0360155 0.0168462
0.085793 -0.0375475 0.020497
SCALARS mass float 1
LOOKUP_TABLE default
1
1
1
1
1
1
1
1
1
1
1
1
1
1
1
1
1
1
1
1
1
1
1
1
1
1
1
1
1
1
1
1
1
1
1
1
1
1
1
1
1
1
1
1
1
1
1
1
1
1
1
1
1
1
1
1
1
1
1
1
1
1
1
1
1
1
1
1
1
1
1
1
1
1
1
1
1
1
1
1
1
1
1
1
1
1
1
1
1
1
1
1
1
1
1
1
1
1
1
1
1
1
1
1
1
1
1
1
1
1
1
1
1
1
1
1
1
1
1
1
1
1
1
1
1
1
1
1
1
1
1
1
1
1
1
1
1
1
1
1
1
1
1
1
1
1
1
1
1
1
