# vtk DataFile Version 3.0
Molecular Dynamics Particle Data
ASCII
DATASET POLYDATA
POINTS 150 float
0.48925 0.489248 0.489248
0.488723 0.488721 0.598624
0.48868 0.488679 0.699902
0.48868 0.488679 0.800098
0.488723 0.488721 0.901376
0.48925 0.489248 1.01075
0.488725 0.598624 0.488721
0.488119 0.598523 0.598523
0.488068 0.598509 0.69989
0.488068 0.598509 0.80011
0.488119 0.598523 0.901477
0.488725 0.598624 1.01128
0.488684 0.699902 0.488679
0.488069 0.69989 0.598508
0.488017 0.699888 0.699888
0.488017 0.699888 0.800112
0.488069 0.69989 0.901491
0.488684 0.699902 1.01132
0.488684 0.800098 0.488679
0.48807 0.80011 0.598508
0.488017 0.800112 0.699888
0.488017 0.800112 0.800112
0.48807 0.80011 0.901491
0.488684 0.800098 1.01132
0.488726 0.901376 0.488721
0.48812 0.901477 0.598523
0.48807 0.901491 0.69989
0.48807 0.901491 0.80011
0.48812 0.901477 0.901477
0.488726 0.901376 1.01128
0.489253 1.01075 0.489248
0.488726 1.01128 0.598624
0.488684 1.01132 0.699902
0.488684 1.01132 0.800098
0.488726 1.01128 0.901376
0.489253 1.01075 1.01075
0.598642 0.488725 0.488722
0.598545 0.488119 0.598524
0.598532 0.488068 0.69989
0.598532 0.488068 0.80011
0.598545 0.488119 0.901476
0.598642 0.488725 1.01128
0.598626 0.598527 0.488118
0.598521 0.59841 0.598407
0.598506 0.598393 0.699876
0.598506 0.598393 0.800124
0.598521 0.59841 0.901594
0.598626 0.598527 1.01188
0.598624 0.699891 0.488068
0.598518 0.699877 0.598389
0.598504 0.699875 0.699874
0.598504 0.699875 0.800126
0.598518 0.699877 0.901611
0.598624 0.699891 1.01193
0.598625 0.80011 0.488068
0.59852 0.800124 0.59839
0.598505 0.800127 0.699874
0.598505 0.800127 0.800126
0.59852 0.800124 0.90161
0.598625 0.80011 1.01193
0.598637 0.901475 0.488119
0.598534 0.901593 0.598407
0.59852 0.901611 0.699876
0.59852 0.901611 0.800124
0.598534 0.901593 0.901593
0.598637 0.901475 1.01188
0.598725 1.01127 0.488725
0.598637 1.01188 0.598525
0.598625 1.01193 0.699891
0.598625 1.01193 0.800109
0.598637 1.01188 0.901475
0.598725 1.01127 1.01127
0.700094 0.488725 0.488691
0.700111 0.488118 0.598513
0.700114 0.488067 0.699889
0.700114 0.488067 0.800111
0.700111 0.488118 0.901487
0.700094 0.488725 1.01131
0.701282 0.598558 0.488111
0.70137 0.598446 0.598404
0.701382 0.59843 0.699876
0.701382 0.59843 0.800124
0.70137 0.598446 0.901596
0.701282 0.598558 1.01189
0.701369 0.699899 0.488067
0.701473 0.699887 0.598389
0.701487 0.699884 0.699873
0.701487 0.699884 0.800127
0.701473 0.699887 0.901611
0.701369 0.699899 1.01193
0.701374 0.800111 0.488068
0.701479 0.800126 0.598389
0.701494 0.800129 0.699874
0.701494 0.800129 0.800126
0.701479 0.800126 0.901611
0.701374 0.800111 1.01193
0.701363 0.901476 0.488119
0.701466 0.901594 0.598407
0.70148 0.901611 0.699876
0.70148 0.901611 0.800124
0.701466 0.901594 0.901593
0.701363 0.901476 1.01188
0.701275 1.01127 0.488725
0.701363 1.01188 0.598525
0.701375 1.01193 0.699891
0.701375 1.01193 0.800109
0.701363 1.01188 0.901475
0.701275 1.01127 1.01127
0.80168 0.489145 0.488788
0.80183 0.48861 0.598541
0.801849 0.488566 0.699893
0.801849 0.488566 0.800107
0.80183 0.48861 0.901459
0.80168 0.489145 1.01121
0.810868 0.599058 0.488645
0.811406 0.599019 0.598506
0.811451 0.599011 0.699888
0.811451 0.599011 0.800112
0.811406 0.599019 0.901494
0.810868 0.599058 1.01136
0.811314 0.699986 0.488673
0.811927 0.699991 0.598507
0.811978 0.699991 0.699888
0.811978 0.699991 0.800112
0.811927 0.699991 0.901493
0.811314 0.699986 1.01133
0.811316 0.800106 0.488678
0.81193 0.80012 0.598508
0.811982 0.800123 0.699888
0.811982 0.800123 0.800112
0.81193 0.80012 0.901492
0.811316 0.800106 1.01132
0.811274 0.901377 0.488721
0.811879 0.901478 0.598523
0.81193 0.901492 0.69989
0.81193 0.901492 0.80011
0.811879 0.901478 0.901477
0.811274 0.901377 1.01128
0.810748 1.01075 0.489248
0.811274 1.01128 0.598624
0.811316 1.01132 0.699902
0.811316 1.01132 0.800098
0.811274 1.01128 0.901376
0.810748 1.01075 1.01075
0.910848 0.499528 0.489658
0.911389 0.499446 0.598702
0.911433 0.499437 0.699911
0.911433 0.499437 0.800089
0.911389 0.499446 0.901298
0.910848 0.499528 1.01034
VERTICES 150 300
1 0
1 1
1 2
1 3
1 4
1 5
1 6
1 7
1 8
1 9
1 10
1 11
1 12
1 13
1 14
1 15
1 16
1 17
1 18
1 19
1 20
1 21
1 22
1 23
1 24
1 25
1 26
1 27
1 28
1 29
1 30
1 31
1 32
1 33
1 34
1 35
1 36
1 37
1 38
1 39
1 40
1 41
1 42
1 43
1 44
1 45
1 46
1 47
1 48
1 49
1 50
1 51
1 52
1 53
1 54
1 55
1 56
1 57
1 58
1 59
1 60
1 61
1 62
1 63
1 64
1 65
1 66
1 67
1 68
1 69
1 70
1 71
1 72
1 73
1 74
1 75
1 76
1 77
1 78
1 79
1 80
1 81
1 82
1 83
1 84
1 85
1 86
1 87
1 88
1 89
1 90
1 91
1 92
1 93
1 94
1 95
1 96
1 97
1 98
1 99
1 100
1 101
1 102
1 103
1 104
1 105
1 106
1 107
1 108
1 109
1 110
1 111
1 112
1 113
1 114
1 115
1 116
1 117
1 118
1 119
1 120
1 121
1 122
1 123
1 124
1 125
1 126
1 127
1 128
1 129
1 130
1 131
1 132
1 133
1 134
1 135
1 136
1 137
1 138
1 139
1 140
1 141
1 142
1 143
1 144
1 145
1 146
1 147
1 148
1 149
POINT_DATA 150
VECTORS velocity float
-0.0960475 -0.0960707 -0.0960742
-0.100673 -0.100702 -0.0227416
-0.101272 -0.101305 -0.00239388
-0.101272 -0.101305 0.00239331
-0.100673 -0.100702 0.022739
-0.0960476 -0.0960708 0.0960765
-0.100604 -0.022737 -0.100704
-0.105951 -0.0241815 -0.0241865
-0.106653 -0.0244311 -0.00263066
-0.106653 -0.0244311 0.00263066
-0.105951 -0.0241814 0.0241863
-0.100604 -0.022737 0.100704
-0.101187 -0.00239256 -0.101306
-0.106637 -0.00262878 -0.0244349
-0.10736 -0.00267556 -0.00267751
-0.10736 -0.00267557 0.00267687
-0.106637 -0.0026288 0.0244352
-0.101187 -0.00239255 0.101306
-0.101184 0.00239385 -0.101306
-0.106632 0.00263156 -0.0244347
-0.107356 0.00267824 -0.00267747
-0.107356 0.00267825 0.00267684
-0.106632 0.00263158 0.0244347
-0.101184 0.00239385 0.101306
-0.100587 0.0227381 -0.100703
-0.105931 0.0241859 -0.0241853
-0.106631 0.024435 -0.00263064
-0.106631 0.024435 0.00263039
-0.105931 0.0241858 0.0241859
-0.100587 0.0227381 0.100703
-0.0959721 0.0960733 -0.0960711
-0.100587 0.100703 -0.0227403
-0.101183 0.101306 -0.00239352
-0.101183 0.101306 0.00239323
-0.100587 0.100703 0.0227375
-0.0959722 0.0960734 0.0960733
-0.0223449 -0.100635 -0.100686
-0.0237118 -0.105986 -0.0241784
-0.0239465 -0.106689 -0.00262838
-0.0239465 -0.106689 0.00262799
-0.0237118 -0.105986 0.0241786
-0.022345 -0.100635 0.100687
-0.0216778 -0.0241048 -0.105999
-0.0230847 -0.025755 -0.0258205
-0.0233283 -0.0260482 -0.00290755
-0.0233283 -0.0260482 0.00290836
-0.0230846 -0.025755 0.0258194
-0.0216778 -0.0241048 0.105999
-0.0216925 -0.0026119 -0.106693
-0.0230945 -0.00288985 -0.0261088
-0.0233422 -0.00294438 -0.00296516
-0.0233422 -0.00294439 0.00296535
-0.0230945 -0.00288984 0.0261092
-0.0216925 -0.00261188 0.106693
-0.0216741 0.00262825 -0.10669
-0.0230724 0.00291159 -0.026108
-0.0233169 0.00296969 -0.00296435
-0.0233169 0.00296969 0.00296468
-0.0230724 0.00291156 0.0261079
-0.0216741 0.00262824 0.10669
-0.0214704 0.0241571 -0.105985
-0.0228316 0.0258154 -0.0258146
-0.0230688 0.0261091 -0.00290645
-0.0230688 0.0261091 0.00290681
-0.0228316 0.0258154 0.025814
-0.0214704 0.0241571 0.105986
-0.0202783 0.100635 -0.100635
-0.0214704 0.105986 -0.024155
-0.0216714 0.10669 -0.00262458
-0.0216714 0.10669 0.0026247
-0.0214703 0.105986 0.0241556
-0.0202783 0.100635 0.100635
0.0012361 -0.100648 -0.101141
0.00144853 -0.10601 -0.0243606
0.00148593 -0.106712 -0.0026619
0.00148593 -0.106712 0.00266189
0.00144855 -0.10601 0.0243589
0.0012361 -0.100648 0.101142
0.0204124 -0.0236953 -0.106085
0.0216007 -0.0252842 -0.0258531
0.0218055 -0.0255638 -0.00291619
0.0218055 -0.0255638 0.0029164
0.0216007 -0.0252842 0.0258546
0.0204124 -0.0236953 0.106084
0.0216091 -0.0025046 -0.106705
0.0229893 -0.00275929 -0.0261149
0.0232284 -0.0028075 -0.00296678
0.0232284 -0.00280751 0.0029668
0.0229893 -0.00275933 0.0261152
0.0216091 -0.0025046 0.106704
0.021664 0.00264983 -0.106692
0.0230595 0.0029385 -0.0261085
0.0233025 0.00299697 -0.00296513
0.0233024 0.00299697 0.00296531
0.0230595 0.00293847 0.026109
0.0216641 0.00264983 0.106692
0.021469 0.0241595 -0.105986
0.0228287 0.0258187 -0.0258147
0.0230668 0.0261138 -0.00290661
0.0230668 0.0261138 0.00290683
0.0228287 0.0258187 0.0258142
0.021469 0.0241595 0.105986
0.020279 0.100635 -0.100635
0.0214701 0.105987 -0.024155
0.0216714 0.106691 -0.00262456
0.0216714 0.106691 0.00262469
0.02147 0.105987 0.0241556
0.020279 0.100635 0.100635
0.0240707 -0.0976389 -0.100217
0.0258101 -0.1024 -0.0239688
0.0260989 -0.103026 -0.00258602
0.0260989 -0.103026 0.00258566
0.0258102 -0.102399 0.0239696
0.0240707 -0.0976389 0.100216
0.0975781 -0.0196452 -0.101376
0.102306 -0.0206274 -0.0244022
0.102953 -0.0208102 -0.00267332
0.102953 -0.0208101 0.00267381
0.102306 -0.0206274 0.0244044
0.097578 -0.0196452 0.101375
0.101241 -0.00111694 -0.101355
0.106686 -0.00114971 -0.024464
0.107409 -0.00116591 -0.00268387
0.107409 -0.00116594 0.00268388
0.106686 -0.00114982 0.0244638
0.101241 -0.00111692 0.101355
0.101179 0.00257021 -0.101313
0.106625 0.00285004 -0.0244383
0.10735 0.00290386 -0.00267927
0.107349 0.00290386 0.00267875
0.106625 0.00285005 0.0244382
0.10118 0.00257021 0.101313
0.100586 0.0227534 -0.100703
0.10593 0.0242062 -0.0241861
0.10663 0.0244562 -0.00263065
0.10663 0.0244562 0.00263065
0.10593 0.0242062 0.024186
0.100586 0.0227534 0.100704
0.0959712 0.0960747 -0.0960712
0.100586 0.100705 -0.0227404
0.101183 0.101308 -0.00239357
0.101183 0.101308 0.00239327
0.100586 0.100705 0.0227376
0.0959713 0.0960748 0.0960734
0.0974597 -0.00363294 -0.0928039
0.102305 -0.00439515 -0.0216498
0.102942 -0.00448356 -0.00221675
0.102942 -0.00448356 0.00221685
0.102305 -0.00439514 0.0216509
0.0974597 -0.00363294 0.0928028
VECTORS force float
-0.300238 -0.300622 -0.300683
-0.313599 -0.314066 -0.238044
-0.318892 -0.3194 -0.0461022
-0.318892 -0.3194 0.0460971
-0.313599 -0.314066 0.238028
-0.300238 -0.300622 0.300698
-0.311952 -0.237967 -0.31409
-0.327667 -0.249888 -0.249965
-0.333736 -0.25319 -0.0498256
-0.333736 -0.25319 0.0498235
-0.327667 -0.249887 0.24997
-0.311952 -0.237967 0.314089
-0.316962 -0.0460792 -0.319416
-0.33344 -0.0497989 -0.253256
-0.33975 -0.0506589 -0.0506875
-0.33975 -0.050659 0.0506826
-0.333439 -0.0497985 0.253275
-0.316962 -0.0460791 0.319404
-0.316931 0.0460923 -0.319414
-0.333389 0.049827 -0.253253
-0.339705 0.0506891 -0.0506871
-0.339705 0.0506892 0.0506824
-0.333389 0.0498267 0.253271
-0.316931 0.0460922 0.319401
-0.31168 0.238015 -0.314074
-0.327343 0.249965 -0.249954
-0.333381 0.253276 -0.0498234
-0.333381 0.253276 0.0498232
-0.327343 0.249964 0.249961
-0.31168 0.238015 0.314071
-0.298505 0.300644 -0.300634
-0.311678 0.314072 -0.238016
-0.316922 0.319401 -0.0460993
-0.316921 0.319401 0.0460875
-0.311678 0.314072 0.238013
-0.298506 0.300644 0.300642
-0.230534 -0.313072 -0.313884
-0.241255 -0.328883 -0.249851
-0.244306 -0.334974 -0.0497947
-0.244306 -0.334974 0.0497903
-0.241255 -0.328883 0.249856
-0.230535 -0.313073 0.313887
-0.20187 -0.248644 -0.329049
-0.211344 -0.26188 -0.262829
-0.214174 -0.265638 -0.054001
-0.214174 -0.265638 0.0540038
-0.211344 -0.26188 0.262821
-0.20187 -0.248644 0.32905
-0.201511 -0.0495124 -0.335015
-0.210818 -0.0537519 -0.266551
-0.213665 -0.0547317 -0.0549911
-0.213665 -0.0547317 0.0549933
-0.210817 -0.0537515 0.266557
-0.201511 -0.0495124 0.335011
-0.201294 0.0497293 -0.334994
-0.210564 0.0540266 -0.266542
-0.213377 0.055033 -0.0549837
-0.213377 0.055033 0.0549863
-0.210564 0.0540259 0.266544
-0.201295 0.0497292 0.334991
-0.198886 0.249409 -0.328892
-0.207806 0.262756 -0.26275
-0.210533 0.26656 -0.0539846
-0.210533 0.266559 0.053987
-0.207807 0.262756 0.262738
-0.198886 0.249409 0.328896
-0.19083 0.313098 -0.313092
-0.198887 0.328899 -0.249394
-0.20127 0.334991 -0.0496991
-0.201272 0.334991 0.0497015
-0.198887 0.328899 0.249391
-0.19083 0.313098 0.313097
0.00761116 -0.313381 -0.3179
0.00892031 -0.329396 -0.252311
0.00920144 -0.33549 -0.0504357
0.00920145 -0.33549 0.0504355
0.00892065 -0.329396 0.252303
0.00761111 -0.313381 0.317903
0.192399 -0.245731 -0.329612
0.200253 -0.258609 -0.263143
0.202712 -0.262229 -0.0540899
0.202712 -0.262229 0.0540942
0.200252 -0.258609 0.263138
0.192399 -0.245731 0.329611
0.201098 -0.0484198 -0.335087
0.210279 -0.0524484 -0.266598
0.213075 -0.0533626 -0.0550018
0.213074 -0.0533628 0.0550021
0.210278 -0.0524482 0.266606
0.201098 -0.0484198 0.335083
0.201211 0.050035 -0.335008
0.210459 0.0543818 -0.266548
0.21326 0.0554052 -0.0549901
0.213259 0.0554053 0.0549923
0.210459 0.0543811 0.266552
0.201211 0.0500349 0.335006
0.198876 0.249451 -0.328896
0.207784 0.262818 -0.262749
0.210521 0.266623 -0.0539868
0.210521 0.266623 0.0539869
0.207784 0.262817 0.262739
0.198876 0.249452 0.328899
0.190833 0.313101 -0.313093
0.198886 0.328905 -0.249394
0.201271 0.334999 -0.0496991
0.201273 0.334999 0.0497014
0.198886 0.328906 0.249391
0.190833 0.313101 0.313097
0.225585 -0.31351 -0.313925
0.236637 -0.327986 -0.248675
0.239958 -0.333717 -0.0492697
0.239958 -0.333717 0.0492676
0.236638 -0.327985 0.24868
0.225585 -0.31351 0.313921
0.308263 -0.242148 -0.316173
0.321256 -0.253975 -0.251528
0.326878 -0.256862 -0.0503828
0.326878 -0.256862 0.0503922
0.321256 -0.253975 0.251536
0.308262 -0.242148 0.316169
0.318463 -0.0343706 -0.31959
0.335178 -0.0364458 -0.253521
0.341518 -0.0369993 -0.0507515
0.341519 -0.0369997 0.0507516
0.335178 -0.0364461 0.253513
0.318463 -0.0343703 0.319584
0.316908 0.0492167 -0.319486
0.333363 0.053556 -0.253306
0.339678 0.0545099 -0.0507019
0.339677 0.0545099 0.0506929
0.333363 0.0535565 0.253326
0.316908 0.0492167 0.319479
0.311677 0.238315 -0.314081
0.327336 0.25035 -0.249963
0.333376 0.253693 -0.0498225
0.333377 0.253693 0.0498224
0.327336 0.250349 0.249967
0.311677 0.238315 0.314081
0.298501 0.300663 -0.300634
0.311676 0.314098 -0.238016
0.316918 0.319426 -0.0460994
0.316918 0.319426 0.0460875
0.311676 0.314099 0.238013
0.298501 0.300663 0.300643
0.310156 -0.00389251 -0.296149
0.325463 -0.00686384 -0.230158
0.331261 -0.00743739 -0.0434425
0.331261 -0.00743735 0.0434448
0.325462 -0.00686367 0.230164
0.310156 -0.00389248 0.296141
SCALARS mass float 1
LOOKUP_TABLE default
1
1
1
1
1
1
1
1
1
1
1
1
1
1
1
1
1
1
1
1
1
1
1
1
1
1
1
1
1
1
1
1
1
1
1
1
1
1
1
1
1
1
1
1
1
1
1
1
1
1
1
1
1
1
1
1
1
1
1
1
1
1
1
1
1
1
1
1
1
1
1
1
1
1
1
1
1
1
1
1
1
1
1
1
1
1
1
1
1
1
1
1
1
1
1
1
1
1
1
1
1
1
1
1
1
1
1
1
1
1
1
1
1
1
1
1
1
1
1
1
1
1
1
1
1
1
1
1
1
1
1
1
1
1
1
1
1
1
1
1
1
1
1
1
1
1
1
1
1
1
