# vtk DataFile Version 3.0
Molecular Dynamics Particle Data
ASCII
DATASET POLYDATA
POINTS 150 float
0.451879 0.451805 0.451796
0.449626 0.449542 0.581341
0.449177 0.449089 0.695212
0.449177 0.449089 0.804788
0.449626 0.449542 0.918658
0.451879 0.451805 1.0482
0.44991 0.581355 0.449536
0.447299 0.580457 0.580447
0.446788 0.580195 0.694947
0.446788 0.580195 0.805053
0.447299 0.580457 0.919553
0.44991 0.581355 1.05046
0.4495 0.695216 0.449084
0.446823 0.694951 0.580184
0.446292 0.694867 0.694864
0.446292 0.694867 0.805136
0.446823 0.694951 0.919816
0.4495 0.695216 1.05092
0.449504 0.804787 0.449084
0.446828 0.805053 0.580185
0.446297 0.805137 0.694864
0.446297 0.805137 0.805136
0.446828 0.805053 0.919816
0.449504 0.804787 1.05092
0.449942 0.918652 0.449538
0.447336 0.919553 0.580448
0.446828 0.919816 0.694948
0.446828 0.919816 0.805052
0.447336 0.919553 0.919552
0.449942 0.918652 1.05046
0.452181 1.0482 0.451802
0.449943 1.05046 0.581347
0.449504 1.05092 0.695214
0.449504 1.05092 0.804785
0.449942 1.05046 0.918652
0.452181 1.0482 1.0482
0.582522 0.449641 0.449559
0.581743 0.447021 0.580461
0.581517 0.446502 0.694952
0.581517 0.446502 0.805047
0.581743 0.447021 0.919539
0.582522 0.449641 1.05044
0.585524 0.580581 0.447002
0.584792 0.579581 0.579496
0.584595 0.579288 0.69467
0.584595 0.579288 0.80533
0.584792 0.579581 0.920504
0.585524 0.580581 1.053
0.585568 0.694991 0.446495
0.584848 0.694697 0.579205
0.584651 0.694605 0.694577
0.584652 0.694605 0.805423
0.584848 0.694697 0.920796
0.585568 0.694991 1.0535
0.58558 0.805036 0.446497
0.584863 0.805336 0.579205
0.584668 0.80543 0.694578
0.584668 0.80543 0.805422
0.584863 0.805336 0.920795
0.58558 0.805036 1.0535
0.585746 0.919488 0.447018
0.585054 0.920499 0.579503
0.584866 0.920796 0.694672
0.584866 0.920796 0.805328
0.585054 0.920499 0.920496
0.585746 0.919488 1.05298
0.586357 1.05036 0.449636
0.585746 1.05298 0.580514
0.585583 1.0535 0.69497
0.585583 1.0535 0.80503
0.585746 1.05298 0.919486
0.586357 1.05036 1.05036
0.700522 0.449635 0.449232
0.700633 0.446998 0.580282
0.700653 0.446478 0.694897
0.700653 0.446478 0.805103
0.700633 0.446998 0.919718
0.700522 0.449635 1.05077
0.713712 0.580777 0.446951
0.714295 0.579807 0.579472
0.714461 0.579523 0.694663
0.714461 0.579523 0.805338
0.714295 0.579807 0.920528
0.713712 0.580777 1.05305
0.714407 0.695083 0.446488
0.715116 0.694806 0.5792
0.715309 0.694719 0.694576
0.715309 0.694719 0.805424
0.715116 0.694806 0.9208
0.714407 0.695083 1.05351
0.71441 0.805071 0.446495
0.715125 0.805377 0.579205
0.715319 0.805474 0.694577
0.715319 0.805474 0.805423
0.715125 0.805377 0.920795
0.71441 0.805071 1.0535
0.714253 0.919496 0.447017
0.714944 0.920508 0.579503
0.715131 0.920807 0.694672
0.715131 0.920807 0.805328
0.714944 0.920508 0.920497
0.714253 0.919496 1.05298
0.713643 1.05037 0.449636
0.714254 1.05298 0.580514
0.714417 1.0535 0.69497
0.714417 1.0535 0.80503
0.714254 1.05298 0.919486
0.713643 1.05037 1.05036
0.818682 0.450873 0.449753
0.819672 0.448533 0.58057
0.819947 0.448047 0.694988
0.819947 0.448047 0.805012
0.819672 0.448533 0.919431
0.818682 0.450873 1.05025
0.848224 0.582492 0.449174
0.850414 0.581806 0.580309
0.850856 0.581591 0.694906
0.850856 0.581591 0.805094
0.850414 0.581806 0.919692
0.848224 0.582492 1.05083
0.850612 0.695959 0.449063
0.853308 0.695812 0.580164
0.853841 0.695751 0.694857
0.853841 0.695751 0.805143
0.853308 0.695812 0.919836
0.850612 0.695959 1.05093
0.850489 0.805129 0.449075
0.853164 0.805454 0.580178
0.853695 0.805549 0.694861
0.853695 0.805549 0.805138
0.853164 0.805454 0.919822
0.850489 0.805129 1.05093
0.850057 0.91872 0.449537
0.852663 0.919634 0.580447
0.853171 0.919901 0.694947
0.853171 0.919901 0.805053
0.852663 0.919634 0.919554
0.850057 0.91872 1.05046
0.847819 1.0482 0.451802
0.850058 1.05047 0.581347
0.850495 1.05092 0.695214
0.850495 1.05092 0.804785
0.850058 1.05047 0.918652
0.847819 1.0482 1.0482
0.948988 0.498111 0.453201
0.951429 0.497655 0.581926
0.951928 0.49758 0.695386
0.951928 0.49758 0.804614
0.951429 0.497655 0.918074
0.948988 0.498111 1.0468
VERTICES 150 300
1 0
1 1
1 2
1 3
1 4
1 5
1 6
1 7
1 8
1 9
1 10
1 11
1 12
1 13
1 14
1 15
1 16
1 17
1 18
1 19
1 20
1 21
1 22
1 23
1 24
1 25
1 26
1 27
1 28
1 29
1 30
1 31
1 32
1 33
1 34
1 35
1 36
1 37
1 38
1 39
1 40
1 41
1 42
1 43
1 44
1 45
1 46
1 47
1 48
1 49
1 50
1 51
1 52
1 53
1 54
1 55
1 56
1 57
1 58
1 59
1 60
1 61
1 62
1 63
1 64
1 65
1 66
1 67
1 68
1 69
1 70
1 71
1 72
1 73
1 74
1 75
1 76
1 77
1 78
1 79
1 80
1 81
1 82
1 83
1 84
1 85
1 86
1 87
1 88
1 89
1 90
1 91
1 92
1 93
1 94
1 95
1 96
1 97
1 98
1 99
1 100
1 101
1 102
1 103
1 104
1 105
1 106
1 107
1 108
1 109
1 110
1 111
1 112
1 113
1 114
1 115
1 116
1 117
1 118
1 119
1 120
1 121
1 122
1 123
1 124
1 125
1 126
1 127
1 128
1 129
1 130
1 131
1 132
1 133
1 134
1 135
1 136
1 137
1 138
1 139
1 140
1 141
1 142
1 143
1 144
1 145
1 146
1 147
1 148
1 149
POINT_DATA 150
VECTORS velocity float
-0.142264 -0.142949 -0.143028
-0.148562 -0.149315 -0.085895
-0.15051 -0.151303 -0.0300578
-0.15051 -0.151303 0.0300543
-0.148562 -0.149315 0.0858942
-0.142264 -0.142949 0.143031
-0.146165 -0.0857933 -0.149368
-0.153519 -0.0890342 -0.0891159
-0.155678 -0.0903185 -0.0312125
-0.155678 -0.0903185 0.0312126
-0.153519 -0.0890338 0.0891159
-0.146165 -0.0857933 0.149368
-0.147827 -0.0300231 -0.151349
-0.155437 -0.0311872 -0.0903975
-0.157688 -0.0316427 -0.0316675
-0.157688 -0.0316427 0.0316682
-0.155437 -0.0311873 0.0903991
-0.147827 -0.0300231 0.151347
-0.147809 0.0300451 -0.151347
-0.155411 0.0312184 -0.0903962
-0.157662 0.0316761 -0.0316669
-0.157662 0.0316761 0.0316671
-0.155411 0.0312184 0.0903976
-0.147809 0.0300451 0.151345
-0.145944 0.0858583 -0.149355
-0.153267 0.0891101 -0.0891076
-0.155407 0.0904007 -0.0312091
-0.155407 0.0904006 0.03121
-0.153267 0.0891099 0.0891082
-0.145944 0.0858584 0.149354
-0.139709 0.142988 -0.142986
-0.145944 0.149355 -0.0858557
-0.147805 0.151345 -0.0300422
-0.147805 0.151345 0.030038
-0.145944 0.149355 0.0858572
-0.139709 0.142988 0.142987
-0.0764242 -0.148702 -0.149217
-0.0789807 -0.156086 -0.089012
-0.0800186 -0.158326 -0.031175
-0.0800185 -0.158326 0.0311744
-0.0789806 -0.156086 0.0890134
-0.0764242 -0.148702 0.149219
-0.055845 -0.0882865 -0.156203
-0.0581758 -0.0918128 -0.0922941
-0.0589938 -0.0932125 -0.0323405
-0.0589937 -0.0932127 0.0323399
-0.0581758 -0.0918129 0.092293
-0.0558451 -0.0882865 0.156203
-0.0555105 -0.0309143 -0.158379
-0.0577545 -0.0321568 -0.0936864
-0.0585692 -0.032648 -0.0328228
-0.0585692 -0.0326478 0.0328235
-0.0577545 -0.0321565 0.0936862
-0.0555105 -0.0309143 0.158379
-0.055483 0.0310971 -0.15837
-0.0577164 0.0323702 -0.0936802
-0.0585233 0.0328797 -0.0328207
-0.0585234 0.0328798 0.0328209
-0.0577164 0.0323701 0.09368
-0.055483 0.0310974 0.15837
-0.0547956 0.0886885 -0.156123
-0.0569343 0.0922692 -0.092254
-0.0577058 0.0936938 -0.0323245
-0.0577059 0.0936938 0.0323242
-0.0569344 0.0922692 0.0922529
-0.0547956 0.0886883 0.156123
-0.0528937 0.14875 -0.148748
-0.0547935 0.156125 -0.0886763
-0.0554707 0.158371 -0.0310526
-0.0554708 0.158371 0.0310531
-0.0547935 0.156125 0.0886759
-0.0528939 0.14875 0.148748
0.00115717 -0.148599 -0.150589
0.00151569 -0.156088 -0.0898338
0.00157663 -0.158325 -0.0314611
0.0015767 -0.158325 0.0314592
0.00151577 -0.156088 0.0898331
0.00115701 -0.148599 0.15059
0.0530537 -0.0878891 -0.156385
0.0547466 -0.0913339 -0.0923892
0.0554202 -0.0927007 -0.0323575
0.0554203 -0.0927007 0.032359
0.0547466 -0.0913338 0.0923878
0.0530535 -0.0878891 0.156384
0.0555498 -0.0304968 -0.158401
0.057769 -0.0316791 -0.093702
0.0585701 -0.0321483 -0.0328292
0.0585702 -0.0321484 0.0328299
0.057769 -0.031679 0.0937023
0.0555499 -0.0304968 0.158401
0.0554386 0.0313262 -0.158378
0.0576615 0.0326403 -0.0936861
0.0584645 0.0331615 -0.0328228
0.0584644 0.0331615 0.0328234
0.0576616 0.0326402 0.0936862
0.0554386 0.0313262 0.158378
0.0547839 0.0887519 -0.156125
0.0569167 0.0923464 -0.0922553
0.0576891 0.0937762 -0.0323257
0.0576891 0.0937762 0.032325
0.0569168 0.0923463 0.0922544
0.0547839 0.0887519 0.156125
0.0528939 0.148755 -0.148748
0.0547918 0.156132 -0.0886766
0.0554688 0.158378 -0.0310527
0.055469 0.158378 0.0310533
0.0547918 0.156132 0.0886761
0.052894 0.148755 0.148749
0.0819145 -0.146122 -0.148802
0.0851815 -0.15276 -0.0886716
0.0864778 -0.154918 -0.0310413
0.0864778 -0.154918 0.0310419
0.0851815 -0.15276 0.0886714
0.0819145 -0.146122 0.148801
0.137544 -0.0830206 -0.150651
0.143027 -0.085614 -0.0896787
0.144717 -0.0866492 -0.0314009
0.144717 -0.0866492 0.0314044
0.143026 -0.0856141 0.0896797
0.137544 -0.0830206 0.150651
0.148607 -0.0277563 -0.15138
0.156366 -0.0285256 -0.0904718
0.158644 -0.0288831 -0.0316945
0.158644 -0.0288831 0.0316943
0.156366 -0.0285257 0.0904699
0.148607 -0.0277562 0.151378
0.147753 0.0321628 -0.151396
0.155346 0.0336531 -0.090436
0.157595 0.0341738 -0.031682
0.157595 0.0341736 0.0316811
0.155346 0.0336532 0.0904377
0.147753 0.0321629 0.151397
0.145942 0.0864803 -0.149365
0.153264 0.0898403 -0.0891178
0.155404 0.0911565 -0.0312136
0.155404 0.0911565 0.0312139
0.153264 0.0898403 0.0891182
0.145942 0.0864804 0.149365
0.139707 0.143026 -0.142987
0.145942 0.1494 -0.085857
0.147803 0.151394 -0.0300425
0.147803 0.151394 0.0300386
0.145942 0.1494 0.0858578
0.139707 0.143026 0.142988
0.146505 -0.00720521 -0.139954
0.153852 -0.00897885 -0.0841037
0.156137 -0.00939026 -0.0293794
0.156137 -0.00939028 0.0293809
0.153852 -0.00897879 0.0841021
0.146505 -0.0072052 0.139954
VECTORS force float
-0.0717336 -0.0764418 -0.0768591
-0.0728826 -0.0777949 -0.131902
-0.0754569 -0.0805762 -0.0722094
-0.075457 -0.0805762 0.0722059
-0.072883 -0.0777949 0.131906
-0.0717338 -0.0764419 0.0768578
-0.0605396 -0.131414 -0.0781301
-0.0624375 -0.132168 -0.132533
-0.064959 -0.133727 -0.0719067
-0.064959 -0.133727 0.0719087
-0.0624376 -0.132167 0.13253
-0.0605397 -0.131414 0.0781298
-0.0619624 -0.0720527 -0.0808841
-0.0640714 -0.0717859 -0.134096
-0.066688 -0.0721602 -0.0722705
-0.0666879 -0.0721599 0.0722776
-0.0640711 -0.0717872 0.134092
-0.0619623 -0.0720528 0.0808842
-0.0619262 0.0721797 -0.0808773
-0.0640205 0.0719374 -0.134094
-0.0666356 0.0723291 -0.0722654
-0.0666354 0.0723288 0.0722732
-0.0640206 0.0719379 0.134088
-0.0619262 0.0721797 0.0808769
-0.0597389 0.131739 -0.0780777
-0.0615503 0.132515 -0.132508
-0.0640155 0.134094 -0.071892
-0.0640156 0.134094 0.0718947
-0.0615503 0.132515 0.132505
-0.0597387 0.13174 0.0780779
-0.058376 0.0767 -0.0767042
-0.0597379 0.0780787 -0.131723
-0.0619197 0.0808787 -0.0721557
-0.0619194 0.0808787 0.0721561
-0.0597378 0.0780787 0.131727
-0.0583759 0.0766998 0.076699
-0.0869472 -0.0757915 -0.0775265
-0.08653 -0.077337 -0.132148
-0.0874015 -0.0803063 -0.0717797
-0.0874013 -0.0803062 0.0717821
-0.0865289 -0.077337 0.132147
-0.0869468 -0.0757916 0.0775283
-0.0306928 -0.13034 -0.077749
-0.0311912 -0.130809 -0.131887
-0.0317243 -0.132362 -0.0711208
-0.0317242 -0.132362 0.0711162
-0.0311917 -0.13081 0.13189
-0.0306926 -0.13034 0.0777508
-0.0299947 -0.0709738 -0.0805489
-0.030242 -0.0705334 -0.133439
-0.0307456 -0.0708668 -0.0714473
-0.0307456 -0.0708675 0.071448
-0.0302423 -0.0705327 0.133435
-0.0299947 -0.0709739 0.0805506
-0.0302212 0.0717161 -0.0805352
-0.030473 0.0713508 -0.133422
-0.0309778 0.0717418 -0.071451
-0.0309779 0.0717428 0.07145
-0.0304733 0.0713508 0.133421
-0.0302212 0.0717153 0.0805365
-0.029813 0.131292 -0.077544
-0.0299972 0.131877 -0.131801
-0.0304623 0.133491 -0.0710953
-0.0304625 0.133491 0.0710898
-0.0299973 0.131877 0.131806
-0.029813 0.131293 0.077544
-0.0296553 0.076052 -0.0760448
-0.0298023 0.0775512 -0.13124
-0.0301999 0.0805403 -0.0714661
-0.0301997 0.0805403 0.0714662
-0.0298029 0.0775512 0.131242
-0.0296557 0.0760517 0.0760438
-0.00163657 -0.0738614 -0.0789675
-0.00147385 -0.0756935 -0.132736
-0.00143442 -0.0785986 -0.071854
-0.00143391 -0.0785988 0.0718493
-0.00147443 -0.0756934 0.132738
-0.00163713 -0.0738616 0.0789671
0.0290076 -0.1328 -0.0778295
0.0283523 -0.133333 -0.131926
0.0286207 -0.134949 -0.0711008
0.0286209 -0.134949 0.0711021
0.0283525 -0.133334 0.131918
0.0290071 -0.1328 0.077831
0.0309357 -0.0705187 -0.0805458
0.0312532 -0.0700239 -0.133445
0.0317652 -0.0703272 -0.0714526
0.0317654 -0.0703272 0.0714555
0.0312535 -0.0700229 0.133443
0.0309361 -0.0705187 0.0805524
0.0301042 0.0724171 -0.080554
0.0303423 0.0721368 -0.133443
0.0308401 0.072568 -0.0714492
0.0308402 0.0725678 0.07145
0.0303425 0.0721367 0.13344
0.0301042 0.0724172 0.0805534
0.0297579 0.131645 -0.077553
0.0299273 0.132282 -0.131809
0.0303888 0.13391 -0.0710979
0.0303889 0.13391 0.0710933
0.0299275 0.132283 0.131813
0.0297578 0.131645 0.077553
0.0296459 0.0760873 -0.076046
0.0297918 0.0775916 -0.131242
0.0301871 0.0805851 -0.0714667
0.0301874 0.0805851 0.0714675
0.0297924 0.0775916 0.131242
0.0296459 0.0760872 0.0760452
0.106558 -0.0744776 -0.0773202
0.107084 -0.0759012 -0.132041
0.108735 -0.0789413 -0.0718509
0.108734 -0.0789414 0.0718532
0.107084 -0.0759015 0.132038
0.106558 -0.0744776 0.0773221
0.0200236 -0.116779 -0.0810234
0.0166598 -0.115891 -0.133692
0.0168712 -0.116559 -0.0721689
0.0168715 -0.116559 0.0721736
0.0166595 -0.115891 0.13369
0.020024 -0.116779 0.0810305
0.0648883 -0.0737979 -0.0806791
0.0676231 -0.0733132 -0.134067
0.0703755 -0.0734612 -0.07229
0.0703755 -0.0734601 0.0722883
0.0676238 -0.0733128 0.134061
0.0648882 -0.0737977 0.0806746
0.0616001 0.0763654 -0.0810424
0.0636468 0.0766408 -0.13421
0.0662505 0.0771324 -0.0723126
0.0662496 0.0771305 0.0723185
0.0636467 0.0766403 0.134204
0.0616002 0.0763662 0.0810479
0.0597321 0.135369 -0.0781277
0.0615413 0.13661 -0.132557
0.0640068 0.1383 -0.0719146
0.064007 0.138301 0.0719172
0.0615413 0.136611 0.132555
0.0597321 0.135369 0.0781275
0.0583708 0.0769997 -0.0767082
0.0597308 0.0784184 -0.131731
0.0619114 0.0812377 -0.0721556
0.0619115 0.0812374 0.0721569
0.0597306 0.0784181 0.131734
0.0583708 0.0769996 0.0767034
0.0931759 -0.0290223 -0.0790063
0.0982004 -0.0325517 -0.133109
0.102362 -0.0341203 -0.0730299
0.102362 -0.0341207 0.0730273
0.0982005 -0.0325515 0.133104
0.0931758 -0.0290222 0.0790129
SCALARS mass float 1
LOOKUP_TABLE default
1
1
1
1
1
1
1
1
1
1
1
1
1
1
1
1
1
1
1
1
1
1
1
1
1
1
1
1
1
1
1
1
1
1
1
1
1
1
1
1
1
1
1
1
1
1
1
1
1
1
1
1
1
1
1
1
1
1
1
1
1
1
1
1
1
1
1
1
1
1
1
1
1
1
1
1
1
1
1
1
1
1
1
1
1
1
1
1
1
1
1
1
1
1
1
1
1
1
1
1
1
1
1
1
1
1
1
1
1
1
1
1
1
1
1
1
1
1
1
1
1
1
1
1
1
1
1
1
1
1
1
1
1
1
1
1
1
1
1
1
1
1
1
1
1
1
1
1
1
1
