# vtk DataFile Version 3.0
Molecular Dynamics Particle Data
ASCII
DATASET POLYDATA
POINTS 150 float
0.465691 0.465665 0.465662
0.464059 0.464029 0.589177
0.46379 0.463758 0.697791
0.46379 0.463758 0.802209
0.464059 0.464029 0.910823
0.465691 0.465665 1.03434
0.464163 0.589182 0.464027
0.462275 0.588601 0.588597
0.461965 0.588457 0.697641
0.461965 0.588457 0.802359
0.462275 0.588601 0.911403
0.464163 0.589182 1.03597
0.46391 0.697793 0.463756
0.46198 0.697642 0.588452
0.461658 0.697601 0.697599
0.461658 0.697601 0.802401
0.46198 0.697642 0.911548
0.46391 0.697793 1.03624
0.463912 0.802208 0.463757
0.461983 0.80236 0.588453
0.461661 0.802401 0.697599
0.461661 0.802401 0.802401
0.461983 0.80236 0.911547
0.463912 0.802208 1.03624
0.464177 0.910821 0.464028
0.462292 0.911403 0.588598
0.461983 0.911548 0.697641
0.461983 0.911548 0.802359
0.462292 0.911403 0.911403
0.464177 0.910821 1.03597
0.465801 1.03434 0.465664
0.464177 1.03597 0.589179
0.463912 1.03624 0.697792
0.463912 1.03624 0.802208
0.464177 1.03597 0.91082
0.465801 1.03434 1.03434
0.589632 0.464076 0.464038
0.589109 0.462184 0.588603
0.58898 0.461871 0.697643
0.58898 0.461871 0.802357
0.589109 0.462184 0.911397
0.589632 0.464076 1.03596
0.590896 0.588661 0.462175
0.590394 0.588007 0.587964
0.590275 0.587843 0.697478
0.590275 0.587843 0.802523
0.590394 0.588007 0.912036
0.590896 0.588661 1.03782
0.590912 0.697659 0.461868
0.590415 0.69749 0.587801
0.590296 0.697443 0.69743
0.590296 0.697443 0.80257
0.590415 0.69749 0.912199
0.590912 0.697659 1.03813
0.59092 0.802353 0.461869
0.590425 0.802526 0.587802
0.590307 0.802573 0.69743
0.590307 0.802573 0.80257
0.590425 0.802526 0.912198
0.59092 0.802353 1.03813
0.591019 0.911374 0.462183
0.59054 0.912033 0.587968
0.590427 0.912199 0.697478
0.590427 0.912199 0.802522
0.59054 0.912033 0.912032
0.591019 0.911374 1.03782
0.591441 1.03593 0.464075
0.591019 1.03782 0.588627
0.590921 1.03813 0.69765
0.590921 1.03813 0.80235
0.591019 1.03782 0.911373
0.591441 1.03593 1.03593
0.700396 0.464068 0.463838
0.700472 0.462167 0.588501
0.700485 0.461854 0.697614
0.700485 0.461854 0.802386
0.700472 0.462167 0.911498
0.700396 0.464068 1.03616
0.708609 0.588806 0.462141
0.70902 0.588174 0.587949
0.70912 0.588016 0.697472
0.70912 0.588016 0.802528
0.70902 0.588174 0.912051
0.708609 0.588806 1.03786
0.709064 0.697713 0.461863
0.709553 0.697554 0.587798
0.70967 0.69751 0.697429
0.70967 0.69751 0.802571
0.709553 0.697554 0.912202
0.709064 0.697713 1.03814
0.709075 0.802369 0.461868
0.709569 0.802545 0.587801
0.709686 0.802594 0.69743
0.709686 0.802594 0.80257
0.709569 0.802545 0.912199
0.709075 0.802369 1.03813
0.70898 0.911377 0.462183
0.709459 0.912037 0.587968
0.709572 0.912203 0.697478
0.709572 0.912203 0.802522
0.709459 0.912037 0.912032
0.70898 0.911377 1.03782
0.708559 1.03593 0.464075
0.708981 1.03782 0.588627
0.709079 1.03813 0.69765
0.709079 1.03813 0.80235
0.708981 1.03782 0.911373
0.708559 1.03593 1.03593
0.811123 0.465053 0.464191
0.811792 0.463367 0.588678
0.811948 0.463079 0.697665
0.811948 0.463079 0.802335
0.811792 0.463367 0.911322
0.811123 0.465053 1.03581
0.834659 0.590094 0.46378
0.836287 0.589667 0.58851
0.836565 0.58955 0.697617
0.836565 0.58955 0.802383
0.836287 0.589667 0.91149
0.834659 0.590094 1.03622
0.836139 0.698299 0.46374
0.838075 0.698228 0.588439
0.838397 0.6982 0.697595
0.838397 0.6982 0.802405
0.838075 0.698228 0.91156
0.836139 0.698299 1.03626
0.836086 0.802367 0.463752
0.838014 0.802548 0.588449
0.838336 0.802595 0.697598
0.838336 0.802595 0.802402
0.838014 0.802548 0.911551
0.836086 0.802367 1.03625
0.835823 0.910844 0.464027
0.837708 0.911431 0.588597
0.838017 0.911578 0.697641
0.838017 0.911577 0.802359
0.837708 0.911431 0.911403
0.835823 0.910844 1.03597
0.834199 1.03434 0.465664
0.835823 1.03597 0.589179
0.836088 1.03625 0.697792
0.836088 1.03625 0.802208
0.835823 1.03597 0.91082
0.834199 1.03434 1.03434
0.934834 0.498709 0.466748
0.936568 0.498412 0.589578
0.93686 0.498371 0.697895
0.93686 0.498371 0.802105
0.936568 0.498412 0.910423
0.934834 0.498709 1.03325
VERTICES 150 300
1 0
1 1
1 2
1 3
1 4
1 5
1 6
1 7
1 8
1 9
1 10
1 11
1 12
1 13
1 14
1 15
1 16
1 17
1 18
1 19
1 20
1 21
1 22
1 23
1 24
1 25
1 26
1 27
1 28
1 29
1 30
1 31
1 32
1 33
1 34
1 35
1 36
1 37
1 38
1 39
1 40
1 41
1 42
1 43
1 44
1 45
1 46
1 47
1 48
1 49
1 50
1 51
1 52
1 53
1 54
1 55
1 56
1 57
1 58
1 59
1 60
1 61
1 62
1 63
1 64
1 65
1 66
1 67
1 68
1 69
1 70
1 71
1 72
1 73
1 74
1 75
1 76
1 77
1 78
1 79
1 80
1 81
1 82
1 83
1 84
1 85
1 86
1 87
1 88
1 89
1 90
1 91
1 92
1 93
1 94
1 95
1 96
1 97
1 98
1 99
1 100
1 101
1 102
1 103
1 104
1 105
1 106
1 107
1 108
1 109
1 110
1 111
1 112
1 113
1 114
1 115
1 116
1 117
1 118
1 119
1 120
1 121
1 122
1 123
1 124
1 125
1 126
1 127
1 128
1 129
1 130
1 131
1 132
1 133
1 134
1 135
1 136
1 137
1 138
1 139
1 140
1 141
1 142
1 143
1 144
1 145
1 146
1 147
1 148
1 149
POINT_DATA 150
VECTORS velocity float
-0.133341 -0.133645 -0.133687
-0.139434 -0.139782 -0.0698127
-0.141051 -0.141421 -0.0209267
-0.141051 -0.141421 0.0209238
-0.139434 -0.139782 0.0698113
-0.133341 -0.133645 0.13369
-0.138187 -0.0697577 -0.139806
-0.145267 -0.0728046 -0.0728511
-0.147093 -0.0738508 -0.0220121
-0.147093 -0.0738508 0.022012
-0.145267 -0.0728043 0.0728514
-0.138187 -0.0697578 0.139806
-0.139638 -0.0209074 -0.141441
-0.146943 -0.0219973 -0.0738948
-0.148846 -0.022366 -0.0223802
-0.148846 -0.022366 0.0223802
-0.146943 -0.0219972 0.0738966
-0.139638 -0.0209074 0.14144
-0.139625 0.0209185 -0.14144
-0.146924 0.0220146 -0.0738938
-0.148827 0.0223841 -0.0223799
-0.148827 0.0223841 0.0223795
-0.146924 0.0220146 0.0738956
-0.139625 0.0209185 0.141438
-0.138051 0.0697922 -0.139798
-0.145107 0.0728479 -0.0728456
-0.146921 0.0738977 -0.0220101
-0.146921 0.0738976 0.0220105
-0.145107 0.0728477 0.0728466
-0.13805 0.0697922 0.139798
-0.132022 0.133663 -0.13366
-0.13805 0.139798 -0.0697911
-0.139622 0.141438 -0.0209182
-0.139622 0.141438 0.0209143
-0.13805 0.139798 0.0697918
-0.132022 0.133663 0.133662
-0.0646976 -0.139374 -0.139713
-0.0672375 -0.146494 -0.0727881
-0.0681258 -0.148358 -0.0219889
-0.0681258 -0.148358 0.0219881
-0.0672375 -0.146494 0.0727894
-0.0646978 -0.139374 0.139714
-0.0508723 -0.0722796 -0.14657
-0.0531397 -0.0756352 -0.0759863
-0.0538707 -0.0767925 -0.0231278
-0.0538707 -0.0767927 0.0231278
-0.0531397 -0.0756351 0.0759849
-0.0508723 -0.0722796 0.14657
-0.050644 -0.0218216 -0.148388
-0.0528519 -0.023008 -0.0771358
-0.0535833 -0.0234128 -0.0235283
-0.0535833 -0.0234126 0.0235289
-0.0528518 -0.0230078 0.077136
-0.050644 -0.0218216 0.148388
-0.0506005 0.0219319 -0.148381
-0.0527983 0.0231407 -0.0771313
-0.053522 0.0235577 -0.0235264
-0.053522 0.0235577 0.0235267
-0.0527983 0.0231406 0.0771312
-0.0506005 0.0219322 0.148381
-0.0499831 0.0725687 -0.146512
-0.0520951 0.0759644 -0.0759567
-0.0527892 0.077139 -0.0231161
-0.0527892 0.077139 0.0231164
-0.0520951 0.0759643 0.0759552
-0.0499831 0.0725684 0.146513
-0.0481041 0.139399 -0.139397
-0.0499822 0.146514 -0.072561
-0.0505909 0.148381 -0.0219101
-0.050591 0.148381 0.0219106
-0.0499822 0.146514 0.0725605
-0.0481043 0.139399 0.139398
0.00139936 -0.139406 -0.140885
0.00173956 -0.1466 -0.0734951
0.00179856 -0.148465 -0.0222356
0.00179859 -0.148465 0.0222343
0.00173971 -0.1466 0.0734942
0.00139928 -0.139406 0.140885
0.0483244 -0.0716882 -0.146738
0.0500766 -0.0749556 -0.076072
0.0506926 -0.0760773 -0.0231487
0.0506927 -0.0760773 0.02315
0.0500766 -0.0749555 0.0760716
0.0483243 -0.0716882 0.146737
0.0505969 -0.0214729 -0.148409
0.0527743 -0.0226054 -0.07715
0.0534916 -0.0229919 -0.0235335
0.0534917 -0.0229919 0.0235338
0.0527743 -0.0226054 0.0771506
0.050597 -0.0214729 0.148409
0.0505682 0.0220803 -0.148387
0.0527573 0.0233186 -0.0771352
0.0534779 0.0237428 -0.0235281
0.0534778 0.0237428 0.0235286
0.0527573 0.0233185 0.0771356
0.0505682 0.0220803 0.148387
0.0499766 0.0726004 -0.146514
0.0520842 0.0760044 -0.0759573
0.0527795 0.077183 -0.023117
0.0527795 0.077183 0.0231168
0.0520842 0.0760044 0.0759561
0.0499766 0.0726004 0.146514
0.048105 0.139401 -0.139397
0.0499813 0.146518 -0.0725612
0.0505901 0.148385 -0.0219101
0.0505903 0.148385 0.0219106
0.0499813 0.146518 0.0725606
0.0481051 0.139401 0.139398
0.0681948 -0.136805 -0.139303
0.0713266 -0.1432 -0.0724621
0.0723889 -0.144971 -0.021856
0.0723889 -0.144971 0.0218563
0.0713267 -0.1432 0.0724623
0.0681948 -0.136805 0.139303
0.132784 -0.0678156 -0.140846
0.138496 -0.0703554 -0.07331
0.140059 -0.0712351 -0.0221711
0.14006 -0.0712351 0.0221738
0.138496 -0.0703554 0.0733114
0.132784 -0.0678155 0.140845
0.140137 -0.0184539 -0.141491
0.147529 -0.0191653 -0.0739667
0.149446 -0.0194544 -0.022403
0.149446 -0.0194544 0.022403
0.147529 -0.0191654 0.0739655
0.140137 -0.0184538 0.141489
0.139598 0.0224243 -0.141473
0.146892 0.0237622 -0.0739201
0.148794 0.0241784 -0.0223897
0.148794 0.0241784 0.0223885
0.146892 0.0237622 0.073922
0.139598 0.0224243 0.141472
0.138049 0.0700848 -0.139804
0.145105 0.0732014 -0.072851
0.146919 0.0742655 -0.0220123
0.146919 0.0742655 0.0220124
0.145105 0.0732012 0.0728516
0.138049 0.0700849 0.139804
0.13202 0.133678 -0.133661
0.138049 0.139817 -0.0697917
0.139621 0.141459 -0.0209184
0.139621 0.141459 0.0209148
0.138049 0.139817 0.0697919
0.13202 0.133678 0.133663
0.136139 -0.00498133 -0.130395
0.142929 -0.00639155 -0.0679579
0.144746 -0.00665583 -0.0202282
0.144746 -0.00665583 0.0202296
0.142929 -0.00639151 0.0679573
0.136139 -0.00498133 0.130394
VECTORS force float
-0.11003 -0.112911 -0.113241
-0.113199 -0.116339 -0.191175
-0.117249 -0.120547 -0.10749
-0.117249 -0.120547 0.107479
-0.1132 -0.116339 0.191183
-0.11003 -0.112911 0.113241
-0.102958 -0.190749 -0.116569
-0.106842 -0.194206 -0.194536
-0.11105 -0.197445 -0.109559
-0.11105 -0.197444 0.109561
-0.106843 -0.194205 0.194532
-0.102958 -0.190749 0.116569
-0.105855 -0.107339 -0.120751
-0.110131 -0.109469 -0.197766
-0.114548 -0.110886 -0.110982
-0.114548 -0.110886 0.110991
-0.11013 -0.109468 0.197765
-0.105855 -0.107339 0.120749
-0.105796 0.107432 -0.120745
-0.110053 0.109586 -0.197762
-0.114466 0.111018 -0.110981
-0.114466 0.111017 0.110988
-0.110054 0.109586 0.197761
-0.105796 0.107432 0.120741
-0.102126 0.191023 -0.116522
-0.1059 0.194508 -0.194507
-0.110045 0.197772 -0.109542
-0.110045 0.197772 0.109548
-0.1059 0.194508 0.194501
-0.102126 0.191023 0.116521
-0.0991205 0.113074 -0.113078
-0.102125 0.116522 -0.191008
-0.105788 0.120742 -0.107409
-0.105787 0.120742 0.107401
-0.102125 0.116522 0.19102
-0.0991204 0.113074 0.113072
-0.151243 -0.114271 -0.116044
-0.152395 -0.118244 -0.194123
-0.154623 -0.122837 -0.10941
-0.154623 -0.122837 0.109411
-0.152394 -0.118244 0.194127
-0.151242 -0.114271 0.116045
-0.0739879 -0.191655 -0.118651
-0.0749331 -0.194989 -0.19648
-0.0762514 -0.198339 -0.111057
-0.0762512 -0.198339 0.11105
-0.0749339 -0.19499 0.196483
-0.0739879 -0.191655 0.118652
-0.072604 -0.10838 -0.123046
-0.0732582 -0.110378 -0.199841
-0.0745325 -0.111852 -0.112444
-0.0745327 -0.111853 0.112445
-0.0732585 -0.110376 0.199839
-0.072604 -0.108381 0.12305
-0.0726772 0.109061 -0.123027
-0.073315 0.111147 -0.199823
-0.0745879 0.112683 -0.112437
-0.0745883 0.112684 0.112435
-0.0733154 0.111147 0.199824
-0.0726771 0.109063 0.123026
-0.0715851 0.192934 -0.118413
-0.0721072 0.196432 -0.196358
-0.0732966 0.199873 -0.110992
-0.0732969 0.199873 0.110987
-0.0721074 0.196432 0.19636
-0.0715851 0.192933 0.118414
-0.0711231 0.114477 -0.114471
-0.0715736 0.118418 -0.192889
-0.0726443 0.12303 -0.10888
-0.0726444 0.12303 0.10888
-0.0715745 0.118418 0.192889
-0.0711236 0.114477 0.114472
-0.00295966 -0.113546 -0.118637
-0.00273726 -0.117856 -0.195899
-0.00273469 -0.122429 -0.110189
-0.00273466 -0.122429 0.110182
-0.00273758 -0.117857 0.195902
-0.00296071 -0.113547 0.118636
0.0706073 -0.192907 -0.118871
0.070251 -0.196285 -0.196639
0.0712417 -0.199619 -0.111007
0.071242 -0.199619 0.111011
0.0702515 -0.196285 0.196626
0.070607 -0.192907 0.118875
0.0733358 -0.107445 -0.123063
0.0740259 -0.10936 -0.199864
0.0753004 -0.110793 -0.112466
0.0753008 -0.110793 0.11247
0.0740262 -0.10936 0.199858
0.0733359 -0.107445 0.123068
0.0725546 0.109927 -0.123046
0.0731696 0.11215 -0.199843
0.0744312 0.113736 -0.112446
0.0744315 0.113735 0.112447
0.0731699 0.11215 0.199842
0.0725546 0.109927 0.123048
0.07154 0.193202 -0.118421
0.0720466 0.196752 -0.196363
0.0732333 0.200211 -0.110997
0.0732335 0.200211 0.110994
0.0720467 0.196753 0.196364
0.0715401 0.193201 0.118421
0.0711186 0.114499 -0.114472
0.0715672 0.118444 -0.19289
0.0726356 0.123059 -0.10888
0.0726362 0.123059 0.108881
0.0715685 0.118444 0.192889
0.0711188 0.114499 0.114474
0.170529 -0.115376 -0.116151
0.173069 -0.119052 -0.193925
0.176165 -0.123748 -0.109275
0.176165 -0.123748 0.109279
0.173068 -0.119053 0.193919
0.170529 -0.115377 0.116154
0.0786779 -0.188827 -0.118627
0.0778333 -0.191235 -0.195507
0.0802787 -0.193753 -0.109932
0.0802794 -0.193753 0.109942
0.0778329 -0.191235 0.195501
0.0786782 -0.188827 0.118634
0.108541 -0.108387 -0.120607
0.113415 -0.110346 -0.197851
0.117945 -0.111611 -0.111059
0.117945 -0.111611 0.111058
0.113415 -0.110345 0.197845
0.108541 -0.108386 0.120601
0.105561 0.115197 -0.120908
0.109785 0.118352 -0.197909
0.114188 0.120005 -0.11104
0.114187 0.120004 0.111041
0.109785 0.118352 0.19791
0.105561 0.115198 0.120913
0.10212 0.193804 -0.116562
0.105894 0.197737 -0.194549
0.110038 0.201112 -0.109567
0.110038 0.201113 0.109569
0.105894 0.197737 0.194545
0.10212 0.193803 0.116562
0.0991169 0.113235 -0.113081
0.102121 0.11671 -0.191013
0.105784 0.120943 -0.107411
0.105783 0.120943 0.107404
0.102121 0.11671 0.191023
0.0991169 0.113235 0.113077
0.118863 -0.0156165 -0.115257
0.125128 -0.019237 -0.190956
0.130341 -0.0205434 -0.106742
0.130341 -0.0205435 0.106746
0.125128 -0.0192368 0.19094
0.118863 -0.0156166 0.115269
SCALARS mass float 1
LOOKUP_TABLE default
1
1
1
1
1
1
1
1
1
1
1
1
1
1
1
1
1
1
1
1
1
1
1
1
1
1
1
1
1
1
1
1
1
1
1
1
1
1
1
1
1
1
1
1
1
1
1
1
1
1
1
1
1
1
1
1
1
1
1
1
1
1
1
1
1
1
1
1
1
1
1
1
1
1
1
1
1
1
1
1
1
1
1
1
1
1
1
1
1
1
1
1
1
1
1
1
1
1
1
1
1
1
1
1
1
1
1
1
1
1
1
1
1
1
1
1
1
1
1
1
1
1
1
1
1
1
1
1
1
1
1
1
1
1
1
1
1
1
1
1
1
1
1
1
1
1
1
1
1
1
