# vtk DataFile Version 3.0
Molecular Dynamics Particle Data
ASCII
DATASET POLYDATA
POINTS 150 float
0.375597 0.374393 0.374294
0.370183 0.368945 0.529642
0.368628 0.367348 0.676517
0.368628 0.367348 0.823481
0.370183 0.368945 0.970357
0.375597 0.374393 1.12571
0.373024 0.529757 0.36887
0.366607 0.527258 0.527166
0.364886 0.526317 0.675724
0.364886 0.526317 0.824276
0.366607 0.527258 0.972834
0.373024 0.529757 1.13113
0.371737 0.676555 0.367281
0.365114 0.675756 0.526227
0.363324 0.675446 0.675416
0.363324 0.675446 0.824584
0.365114 0.675756 0.973774
0.371737 0.676555 1.13272
0.371749 0.823475 0.367283
0.365133 0.824282 0.526228
0.363343 0.824596 0.675417
0.363343 0.824596 0.824583
0.365133 0.824282 0.973773
0.371749 0.823475 1.13272
0.37323 0.970322 0.368884
0.366841 0.97283 0.527173
0.365136 0.973776 0.675727
0.365136 0.973776 0.824274
0.366841 0.97283 0.972827
0.37323 0.970322 1.13112
0.378676 1.12567 0.374336
0.37323 1.13112 0.52968
0.371752 1.13272 0.67653
0.371752 1.13272 0.823468
0.37323 1.13112 0.970319
0.378676 1.12567 1.12566
0.539584 0.369572 0.369043
0.537561 0.363252 0.527261
0.536791 0.361454 0.675755
0.536791 0.361454 0.824245
0.537561 0.363252 0.97274
0.539584 0.369572 1.13096
0.556439 0.527834 0.363121
0.554477 0.525117 0.524741
0.553841 0.52409 0.674955
0.553841 0.52409 0.825045
0.554477 0.525117 0.975258
0.556439 0.527834 1.13688
0.556625 0.675986 0.361379
0.554743 0.675126 0.523719
0.554112 0.674792 0.674622
0.554112 0.674792 0.825379
0.554743 0.675126 0.97628
0.556625 0.675986 1.13862
0.556622 0.824206 0.361386
0.554746 0.825093 0.523724
0.55412 0.82544 0.674623
0.55412 0.82544 0.825377
0.554746 0.825093 0.976276
0.556622 0.824206 1.13861
0.557149 0.972481 0.363191
0.555351 0.975245 0.524773
0.554754 0.976294 0.674965
0.554754 0.976294 0.825035
0.555351 0.975245 0.975226
0.557149 0.972481 1.13681
0.558748 1.13051 0.369496
0.557151 1.13681 0.527535
0.55663 1.13862 0.675846
0.55663 1.13862 0.824154
0.557151 1.13681 0.972465
0.558748 1.13051 1.1305
0.701073 0.369963 0.367982
0.701381 0.363539 0.52668
0.701436 0.361749 0.675566
0.701436 0.361749 0.824433
0.701381 0.363539 0.973319
0.701073 0.369963 1.13202
0.741285 0.527896 0.362978
0.742668 0.525252 0.524671
0.743174 0.524242 0.674937
0.743174 0.524242 0.825063
0.742668 0.525252 0.975328
0.741285 0.527896 1.13702
0.74346 0.676287 0.361362
0.745325 0.675482 0.523708
0.745948 0.675167 0.674617
0.745948 0.675167 0.825383
0.745325 0.675482 0.976293
0.74346 0.676287 1.13864
0.743338 0.824396 0.361379
0.745203 0.825313 0.523719
0.745823 0.825672 0.674622
0.745823 0.825672 0.825379
0.745203 0.825313 0.976281
0.743338 0.824396 1.13862
0.742835 0.972558 0.363189
0.744629 0.975335 0.524772
0.745226 0.976388 0.674964
0.745226 0.976388 0.825035
0.744629 0.975335 0.975228
0.742835 0.972558 1.13681
0.741251 1.13052 0.369496
0.742845 1.13682 0.527535
0.743368 1.13863 0.675846
0.743368 1.13863 0.824154
0.742845 1.13682 0.972465
0.741251 1.13052 1.1305
0.866162 0.372547 0.369493
0.868795 0.366859 0.527544
0.869792 0.365133 0.675849
0.869792 0.365133 0.824151
0.868795 0.366859 0.972456
0.866162 0.372547 1.13051
0.912629 0.535479 0.367262
0.917236 0.533614 0.526528
0.918451 0.532888 0.675536
0.918451 0.532888 0.824466
0.917236 0.533614 0.973473
0.912629 0.535479 1.13274
0.929148 0.678654 0.367264
0.935926 0.678196 0.526177
0.937746 0.677982 0.675396
0.937746 0.677982 0.824604
0.935926 0.678196 0.973822
0.929148 0.678654 1.13273
0.928177 0.824971 0.367233
0.934781 0.826018 0.526193
0.93657 0.826381 0.675403
0.936569 0.826381 0.824596
0.934781 0.826018 0.973807
0.928177 0.824972 1.13277
0.926769 0.971051 0.368872
0.933157 0.973667 0.527163
0.934861 0.974636 0.675724
0.934861 0.974635 0.824277
0.933157 0.973667 0.972838
0.926769 0.971051 1.13113
0.921321 1.12575 0.374335
0.926767 1.13121 0.529679
0.928244 1.13281 0.67653
0.928244 1.13281 0.823468
0.926767 1.13121 0.970321
0.921321 1.12575 1.12567
1.03358 0.489307 0.377192
1.04003 0.487774 0.531046
1.04195 0.487396 0.676981
1.04195 0.487396 0.823019
1.04003 0.487775 0.968953
1.03358 0.489307 1.12281
VERTICES 150 300
1 0
1 1
1 2
1 3
1 4
1 5
1 6
1 7
1 8
1 9
1 10
1 11
1 12
1 13
1 14
1 15
1 16
1 17
1 18
1 19
1 20
1 21
1 22
1 23
1 24
1 25
1 26
1 27
1 28
1 29
1 30
1 31
1 32
1 33
1 34
1 35
1 36
1 37
1 38
1 39
1 40
1 41
1 42
1 43
1 44
1 45
1 46
1 47
1 48
1 49
1 50
1 51
1 52
1 53
1 54
1 55
1 56
1 57
1 58
1 59
1 60
1 61
1 62
1 63
1 64
1 65
1 66
1 67
1 68
1 69
1 70
1 71
1 72
1 73
1 74
1 75
1 76
1 77
1 78
1 79
1 80
1 81
1 82
1 83
1 84
1 85
1 86
1 87
1 88
1 89
1 90
1 91
1 92
1 93
1 94
1 95
1 96
1 97
1 98
1 99
1 100
1 101
1 102
1 103
1 104
1 105
1 106
1 107
1 108
1 109
1 110
1 111
1 112
1 113
1 114
1 115
1 116
1 117
1 118
1 119
1 120
1 121
1 122
1 123
1 124
1 125
1 126
1 127
1 128
1 129
1 130
1 131
1 132
1 133
1 134
1 135
1 136
1 137
1 138
1 139
1 140
1 141
1 142
1 143
1 144
1 145
1 146
1 147
1 148
1 149
POINT_DATA 150
VECTORS velocity float
-0.158171 -0.162086 -0.162345
-0.164441 -0.168316 -0.11125
-0.166698 -0.170655 -0.0393731
-0.166698 -0.170655 0.0393699
-0.164441 -0.168316 0.11125
-0.158171 -0.162086 0.162347
-0.157268 -0.110974 -0.168525
-0.165061 -0.11415 -0.114379
-0.167541 -0.115469 -0.0404118
-0.167541 -0.115469 0.0404122
-0.165061 -0.11415 0.114379
-0.157268 -0.110974 0.168525
-0.159004 -0.0392823 -0.170844
-0.16708 -0.0403309 -0.115695
-0.169659 -0.0407762 -0.0408555
-0.169659 -0.0407761 0.0408574
-0.167079 -0.0403307 0.115697
-0.159004 -0.0392824 0.170843
-0.158989 0.0393677 -0.17084
-0.167054 0.0404317 -0.115693
-0.169634 0.0408836 -0.0408549
-0.169634 0.0408836 0.0408564
-0.167054 0.0404316 0.115693
-0.158989 0.0393678 0.170839
-0.156864 0.111183 -0.168491
-0.164599 0.114373 -0.114365
-0.167049 0.115701 -0.0404067
-0.16705 0.115701 0.0404082
-0.164599 0.114373 0.114365
-0.156864 0.111183 0.168491
-0.150315 0.162258 -0.162256
-0.156862 0.168492 -0.111176
-0.158984 0.17084 -0.0393485
-0.158984 0.170839 0.0393466
-0.156862 0.168492 0.111176
-0.150316 0.162258 0.162257
-0.0891946 -0.166869 -0.168089
-0.0916917 -0.174137 -0.11419
-0.0927817 -0.176756 -0.0403554
-0.0927816 -0.176756 0.040356
-0.0916915 -0.174137 0.114191
-0.0891947 -0.166869 0.16809
-0.0584446 -0.113281 -0.174475
-0.0610394 -0.116647 -0.117211
-0.0619466 -0.118081 -0.0413625
-0.0619465 -0.118081 0.0413612
-0.0610394 -0.116647 0.11721
-0.0584446 -0.113281 0.174476
-0.0583291 -0.0399046 -0.176996
-0.0607321 -0.0410125 -0.118635
-0.0616303 -0.0414837 -0.0418416
-0.0616303 -0.0414838 0.0418421
-0.0607321 -0.0410124 0.118634
-0.0583291 -0.0399046 0.176997
-0.058408 0.0403274 -0.176986
-0.060806 0.0414843 -0.118626
-0.0616968 0.0419865 -0.0418397
-0.0616968 0.0419868 0.0418396
-0.0608062 0.0414844 0.118626
-0.058408 0.0403275 0.176986
-0.0576581 0.11375 -0.174352
-0.0599446 0.117209 -0.117162
-0.0607926 0.118674 -0.0413492
-0.0607927 0.118674 0.0413481
-0.0599447 0.117209 0.117162
-0.0576581 0.11375 0.174353
-0.0556018 0.167144 -0.167137
-0.0576534 0.17436 -0.113709
-0.0583898 0.17699 -0.0402038
-0.0583898 0.17699 0.0402042
-0.0576535 0.17436 0.113709
-0.055602 0.167145 0.167138
0.00111339 -0.165362 -0.169517
0.00155739 -0.17287 -0.11494
0.00164164 -0.175468 -0.0406168
0.00164176 -0.175468 0.0406145
0.00155739 -0.17287 0.114939
0.0011133 -0.165362 0.169518
0.0552103 -0.114145 -0.174657
0.0567734 -0.117404 -0.117303
0.057454 -0.118823 -0.0413895
0.0574542 -0.118823 0.0413906
0.0567734 -0.117404 0.117301
0.0552101 -0.114145 0.174657
0.0586651 -0.039533 -0.177016
0.0610646 -0.0405496 -0.118648
0.061948 -0.0409927 -0.0418473
0.0619482 -0.0409927 0.0418481
0.0610646 -0.0405494 0.118648
0.0586652 -0.0395331 0.177018
0.0583227 0.0406616 -0.177
0.0607079 0.0418691 -0.118636
0.0615938 0.0423904 -0.0418422
0.0615937 0.0423903 0.0418427
0.060708 0.0418691 0.118636
0.0583227 0.0406617 0.177
0.0576275 0.113937 -0.174359
0.0599044 0.117423 -0.117166
0.0607521 0.118899 -0.0413502
0.0607521 0.118899 0.041349
0.0599045 0.117423 0.117165
0.0576276 0.113937 0.174359
0.0555965 0.167176 -0.167138
0.0576454 0.174395 -0.11371
0.058381 0.177027 -0.0402042
0.0583814 0.177027 0.0402048
0.0576455 0.174395 0.11371
0.0555965 0.167176 0.167139
0.100629 -0.162298 -0.167481
0.103932 -0.168951 -0.113843
0.105404 -0.171502 -0.0402467
0.105404 -0.171502 0.0402473
0.103932 -0.168951 0.113843
0.100629 -0.162298 0.167481
0.113517 -0.0957901 -0.172506
0.118339 -0.0982112 -0.115888
0.119901 -0.0992755 -0.0408379
0.119902 -0.0992754 0.0408421
0.118339 -0.0982114 0.115889
0.113517 -0.0957901 0.172508
0.161296 -0.0355909 -0.17082
0.169726 -0.0361971 -0.115744
0.172379 -0.0364793 -0.0408803
0.172379 -0.0364794 0.0408793
0.169726 -0.0361971 0.115741
0.161296 -0.0355905 0.170817
0.158794 0.0415977 -0.170947
0.166832 0.0430394 -0.115755
0.169407 0.043583 -0.040877
0.169406 0.043583 0.0408777
0.166832 0.0430394 0.115755
0.158795 0.0415976 0.170949
0.156864 0.112908 -0.168525
0.1646 0.116329 -0.114389
0.16705 0.117697 -0.0404134
0.16705 0.117697 0.040414
0.1646 0.116329 0.114389
0.156864 0.112909 0.168525
0.150305 0.162563 -0.162258
0.156852 0.168818 -0.111179
0.158972 0.171175 -0.0393489
0.158972 0.171175 0.0393471
0.156852 0.168818 0.111179
0.150305 0.162563 0.162258
0.190846 -0.0275669 -0.159002
0.198762 -0.0295798 -0.109488
0.201649 -0.0301412 -0.0387477
0.201649 -0.0301414 0.0387473
0.198762 -0.0295795 0.109487
0.190846 -0.0275669 0.159003
VECTORS force float
-0.0112086 -0.0171516 -0.0173722
-0.011006 -0.0164499 -0.0099591
-0.0107715 -0.0161493 8.44698e-05
-0.0107714 -0.0161493 -8.25407e-05
-0.011006 -0.0164498 0.00995774
-0.0112086 -0.0171517 0.0173713
-0.00551428 -0.00975801 -0.0166388
-0.00612228 -0.00996195 -0.0101703
-0.00599375 -0.00979484 -5.54655e-05
-0.00599373 -0.00979491 5.55075e-05
-0.00612237 -0.00996241 0.0101697
-0.00551426 -0.00975802 0.0166391
-0.00531901 0.000148285 -0.0163177
-0.00591328 1.47877e-05 -0.00999781
-0.00578866 -1.05944e-05 -8.88379e-05
-0.00578864 -1.05767e-05 8.92147e-05
-0.00591321 1.48939e-05 0.00999742
-0.00531899 0.000148253 0.0163183
-0.00533987 -5.59395e-05 -0.0163156
-0.00593065 7.66511e-05 -0.00999707
-0.0058075 0.000102905 -8.90506e-05
-0.00580749 0.000102892 8.94996e-05
-0.00593072 7.66961e-05 0.00999599
-0.00533986 -5.57628e-05 0.016316
-0.00549228 0.00996966 -0.0166138
-0.00606352 0.0101742 -0.0101684
-0.00593058 0.0100059 -5.59549e-05
-0.00593061 0.0100059 5.58878e-05
-0.00606352 0.0101745 0.0101685
-0.00549224 0.0099696 0.0166141
-0.00499219 0.0173248 -0.0173238
-0.00549146 0.0166159 -0.00996638
-0.00533891 0.0163175 7.90509e-05
-0.00533871 0.0163174 -7.63696e-05
-0.00549153 0.0166158 0.00996429
-0.00499225 0.0173248 0.017323
-0.00276605 -0.0150997 -0.0161868
-0.00297403 -0.0144572 -0.0101063
-0.00296794 -0.0141897 -4.63113e-05
-0.00296794 -0.0141897 4.73703e-05
-0.00297407 -0.0144572 0.0101063
-0.00276614 -0.0150998 0.0161864
0.00128991 -0.0104675 -0.0149271
0.000841998 -0.0105526 -0.0102212
0.000761594 -0.0103901 -0.000152722
0.000761585 -0.0103899 0.00015231
0.000841974 -0.0105525 0.0102215
0.00128989 -0.0104675 0.014927
0.000456642 9.03394e-05 -0.0146655
0.00019094 -2.30776e-05 -0.0100656
0.00012765 -5.04421e-05 -0.00019685
0.000127687 -5.06395e-05 0.000196203
0.000190948 -2.32254e-05 0.0100661
0.000456665 9.03976e-05 0.0146657
0.000342108 0.000106215 -0.0146658
6.83359e-05 0.000237208 -0.0100663
5.57013e-06 0.000270043 -0.000195819
5.57777e-06 0.000270113 0.000195656
6.83216e-05 0.000237259 0.0100663
0.000342107 0.000105979 0.0146661
0.000389892 0.0101105 -0.0149317
0.000130947 0.0102707 -0.0102334
7.2821e-05 0.0101078 -0.000157637
7.28126e-05 0.0101078 0.00015734
0.000130957 0.0102707 0.0102338
0.00038992 0.0101107 0.0149315
0.000685312 0.0157049 -0.0156941
0.00039253 0.0149418 -0.0100713
0.000349389 0.0146735 -3.68317e-05
0.000349465 0.0146735 3.63574e-05
0.000392522 0.0149418 0.0100724
0.000685336 0.0157049 0.0156936
-0.000100798 -0.012628 -0.0158343
8.55925e-05 -0.0122423 -0.00999422
0.000108749 -0.0119968 -6.98782e-05
0.000108689 -0.0119969 7.00419e-05
8.55286e-05 -0.0122423 0.00999405
-0.000100694 -0.012628 0.015834
-0.00228161 -0.0123883 -0.014935
-0.00224286 -0.0123466 -0.0102244
-0.00222957 -0.0121709 -0.000171574
-0.00222957 -0.012171 0.000170217
-0.00224293 -0.0123465 0.0102251
-0.00228166 -0.0123884 0.0149351
-0.000278619 -0.000133171 -0.0146703
-2.43394e-06 -0.000197815 -0.0100595
5.52949e-05 -0.000212201 -0.000194459
5.53521e-05 -0.000212067 0.000194389
-2.46089e-06 -0.000197859 0.0100598
-0.000278568 -0.000133219 0.0146709
-0.000387906 9.4695e-05 -0.0146738
-0.000115147 0.000238911 -0.0100675
-5.32778e-05 0.000272076 -0.000196794
-5.33526e-05 0.000272007 0.000196454
-0.000115118 0.000238999 0.0100673
-0.000387929 9.46871e-05 0.0146741
-0.00040731 0.010207 -0.014937
-0.000150744 0.0103762 -0.0102348
-9.25139e-05 0.0102165 -0.000157387
-9.2516e-05 0.0102166 0.000157338
-0.000150759 0.0103763 0.0102347
-0.000407313 0.010207 0.0149369
-0.000693837 0.0157588 -0.0156943
-0.000402166 0.0149954 -0.0100718
-0.000358923 0.0147277 -3.59978e-05
-0.000358867 0.0147276 3.56981e-05
-0.000402174 0.0149953 0.0100728
-0.000693854 0.0157588 0.0156938
0.00819341 -0.0112112 -0.0158872
0.00833104 -0.0110032 -0.0101534
0.00825293 -0.0108102 -6.34171e-05
0.00825295 -0.0108102 6.27848e-05
0.00833103 -0.0110033 0.0101536
0.00819336 -0.0112112 0.0158875
-0.0583293 0.00224294 -0.0221287
-0.0561208 0.00128764 -0.011943
-0.0550517 0.000851953 -0.000539735
-0.0550512 0.000851729 0.000539839
-0.0561206 0.0012877 0.0119449
-0.0583291 0.00224298 0.0221307
0.0080069 0.00439989 -0.0163142
0.00871951 0.00403066 -0.00996554
0.00860591 0.00393829 -7.12483e-05
0.00860598 0.0039383 6.96106e-05
0.00871965 0.00403042 0.00996493
0.00800681 0.00439993 0.0163139
0.00516305 -0.000268586 -0.0163766
0.00573427 -0.000126828 -0.0100093
0.00560957 -7.11309e-05 -8.62065e-05
0.00560924 -7.10012e-05 8.7063e-05
0.00573432 -0.000126775 0.0100088
0.00516307 -0.000268677 0.0163772
0.00551088 0.0105491 -0.0166532
0.00608609 0.0108447 -0.0101766
0.00595236 0.010675 -5.68285e-05
0.00595247 0.0106749 5.69267e-05
0.0060861 0.0108447 0.0101762
0.00551085 0.0105491 0.0166534
0.00496898 0.017904 -0.0173209
0.00546547 0.0171965 -0.00996405
0.00531218 0.0168972 7.90095e-05
0.00531217 0.0168971 -7.68061e-05
0.00546546 0.0171965 0.00996297
0.00496901 0.0179041 0.0173196
0.0688013 -0.025434 -0.0151688
0.06614 -0.0239568 -0.00869532
0.0648226 -0.0232082 0.000565694
0.0648223 -0.0232081 -0.000568418
0.0661399 -0.0239565 0.00869692
0.0688012 -0.025434 0.0151678
SCALARS mass float 1
LOOKUP_TABLE default
1
1
1
1
1
1
1
1
1
1
1
1
1
1
1
1
1
1
1
1
1
1
1
1
1
1
1
1
1
1
1
1
1
1
1
1
1
1
1
1
1
1
1
1
1
1
1
1
1
1
1
1
1
1
1
1
1
1
1
1
1
1
1
1
1
1
1
1
1
1
1
1
1
1
1
1
1
1
1
1
1
1
1
1
1
1
1
1
1
1
1
1
1
1
1
1
1
1
1
1
1
1
1
1
1
1
1
1
1
1
1
1
1
1
1
1
1
1
1
1
1
1
1
1
1
1
1
1
1
1
1
1
1
1
1
1
1
1
1
1
1
1
1
1
1
1
1
1
1
1
