# vtk DataFile Version 3.0
Molecular Dynamics Particle Data
ASCII
DATASET POLYDATA
POINTS 150 float
0.406945 0.406396 0.406343
0.402789 0.402208 0.551586
0.401689 0.401083 0.68437
0.401689 0.401083 0.815628
0.402789 0.402208 0.948413
0.406945 0.406396 1.09366
0.404326 0.55165 0.40217
0.399455 0.549784 0.549734
0.398231 0.549112 0.683783
0.398231 0.549112 0.816217
0.399455 0.549785 0.950266
0.404326 0.55165 1.09783
0.40339 0.684391 0.401049
0.398369 0.6838 0.549062
0.397096 0.683579 0.683563
0.397096 0.683579 0.816438
0.39837 0.6838 0.950938
0.40339 0.684391 1.09895
0.403399 0.815625 0.40105
0.398383 0.816221 0.549063
0.39711 0.816443 0.683563
0.39711 0.816443 0.816437
0.398383 0.81622 0.950937
0.403399 0.815625 1.09895
0.404452 0.948391 0.402178
0.399599 0.950263 0.549739
0.398385 0.950939 0.683785
0.398385 0.950939 0.816215
0.399599 0.950263 0.950262
0.404452 0.948391 1.09782
0.408599 1.09363 0.406368
0.404453 1.09782 0.551609
0.403401 1.09895 0.684378
0.403401 1.09895 0.81562
0.404453 1.09782 0.94839
0.408599 1.09363 1.09363
0.557327 0.402574 0.402266
0.5558 0.397721 0.549792
0.555248 0.39645 0.683802
0.555248 0.39645 0.816198
0.5558 0.397721 0.950208
0.557327 0.402574 1.09774
0.568149 0.550178 0.397648
0.566694 0.548136 0.547878
0.566238 0.547399 0.683203
0.566238 0.547399 0.816797
0.566694 0.548136 0.952122
0.568149 0.550178 1.10235
0.568295 0.683945 0.396414
0.566889 0.683307 0.547145
0.566435 0.683068 0.682965
0.566435 0.683068 0.817035
0.566889 0.683307 0.952855
0.568295 0.683945 1.10359
0.568304 0.816166 0.396419
0.566903 0.816823 0.547148
0.566453 0.817071 0.682966
0.566454 0.817071 0.817034
0.566903 0.816823 0.952852
0.568304 0.816166 1.10358
0.568685 0.950037 0.397695
0.56734 0.95211 0.5479
0.56691 0.952861 0.68321
0.56691 0.952861 0.81679
0.56734 0.95211 0.952099
0.568685 0.950037 1.10231
0.569879 1.09746 0.402541
0.568686 1.10231 0.549971
0.568311 1.10358 0.683863
0.568311 1.10358 0.816137
0.568686 1.10231 0.950029
0.569879 1.09746 1.09746
0.700847 0.402718 0.401497
0.701072 0.397804 0.549366
0.701113 0.396536 0.683665
0.701113 0.396536 0.816334
0.701072 0.397804 0.950634
0.700847 0.402717 1.0985
0.730203 0.550371 0.397542
0.731273 0.548382 0.547826
0.731643 0.54766 0.683189
0.731643 0.54766 0.816811
0.731274 0.548382 0.952174
0.730203 0.550371 1.10246
0.73173 0.684169 0.396401
0.733121 0.683567 0.547136
0.733567 0.68334 0.682961
0.733567 0.68334 0.817039
0.733121 0.683567 0.952864
0.73173 0.684169 1.1036
0.731668 0.816289 0.396414
0.733064 0.816967 0.547145
0.733511 0.817222 0.682965
0.733511 0.817222 0.817035
0.733064 0.816967 0.952855
0.731668 0.816289 1.10358
0.731308 0.950079 0.397693
0.73265 0.95216 0.547899
0.73308 0.952914 0.683209
0.73308 0.952914 0.81679
0.73265 0.95216 0.9521
0.731308 0.950079 1.10231
0.730121 1.09746 0.402541
0.731312 1.10231 0.549971
0.731688 1.10359 0.683863
0.731688 1.10359 0.816137
0.731312 1.10231 0.950029
0.730121 1.09746 1.09746
0.846267 0.40472 0.402601
0.848242 0.400368 0.550006
0.848944 0.399154 0.683875
0.848944 0.399154 0.816125
0.848242 0.400368 0.949994
0.846267 0.40472 1.0974
0.888606 0.554707 0.401235
0.892282 0.553306 0.549357
0.893199 0.552785 0.683669
0.8932 0.552785 0.816332
0.892282 0.553306 0.950644
0.888606 0.554707 1.09877
0.897094 0.685843 0.401028
0.902202 0.6855 0.549023
0.903492 0.685342 0.683548
0.903492 0.685341 0.816451
0.902202 0.6855 0.950976
0.897094 0.685843 1.09897
0.896562 0.816666 0.40102
0.901572 0.817427 0.549041
0.902844 0.817683 0.683555
0.902843 0.817683 0.816444
0.901572 0.817427 0.950959
0.896562 0.816666 1.09898
0.895547 0.948794 0.402171
0.9004 0.950729 0.549732
0.901613 0.95142 0.683783
0.901613 0.95142 0.816217
0.9004 0.950729 0.950268
0.895547 0.948794 1.09783
0.8914 1.09367 0.406368
0.895546 1.09786 0.551609
0.896597 1.09899 0.684378
0.896597 1.09899 0.81562
0.895546 1.09786 0.948391
0.8914 1.09367 1.09363
0.997013 0.494153 0.408617
1.00183 0.493053 0.55266
1.00315 0.4928 0.684717
1.00315 0.4928 0.815283
1.00183 0.493053 0.94734
0.997013 0.494153 1.09138
VERTICES 150 300
1 0
1 1
1 2
1 3
1 4
1 5
1 6
1 7
1 8
1 9
1 10
1 11
1 12
1 13
1 14
1 15
1 16
1 17
1 18
1 19
1 20
1 21
1 22
1 23
1 24
1 25
1 26
1 27
1 28
1 29
1 30
1 31
1 32
1 33
1 34
1 35
1 36
1 37
1 38
1 39
1 40
1 41
1 42
1 43
1 44
1 45
1 46
1 47
1 48
1 49
1 50
1 51
1 52
1 53
1 54
1 55
1 56
1 57
1 58
1 59
1 60
1 61
1 62
1 63
1 64
1 65
1 66
1 67
1 68
1 69
1 70
1 71
1 72
1 73
1 74
1 75
1 76
1 77
1 78
1 79
1 80
1 81
1 82
1 83
1 84
1 85
1 86
1 87
1 88
1 89
1 90
1 91
1 92
1 93
1 94
1 95
1 96
1 97
1 98
1 99
1 100
1 101
1 102
1 103
1 104
1 105
1 106
1 107
1 108
1 109
1 110
1 111
1 112
1 113
1 114
1 115
1 116
1 117
1 118
1 119
1 120
1 121
1 122
1 123
1 124
1 125
1 126
1 127
1 128
1 129
1 130
1 131
1 132
1 133
1 134
1 135
1 136
1 137
1 138
1 139
1 140
1 141
1 142
1 143
1 144
1 145
1 146
1 147
1 148
1 149
POINT_DATA 150
VECTORS velocity float
-0.154921 -0.15752 -0.157723
-0.161244 -0.163892 -0.107492
-0.16352 -0.166253 -0.0389676
-0.16352 -0.166253 0.0389641
-0.161244 -0.163892 0.107492
-0.154921 -0.15752 0.157725
-0.155484 -0.107266 -0.164051
-0.163147 -0.110442 -0.110622
-0.165627 -0.111807 -0.0399915
-0.165627 -0.111807 0.0399919
-0.163147 -0.110441 0.110622
-0.155484 -0.107266 0.164051
-0.157258 -0.0388936 -0.166397
-0.165203 -0.0399282 -0.111985
-0.167782 -0.0403737 -0.0404347
-0.167782 -0.0403737 0.0404364
-0.165203 -0.0399281 0.111987
-0.157258 -0.0388936 0.166396
-0.157239 0.038957 -0.166394
-0.165174 0.0400066 -0.111983
-0.167754 0.040458 -0.0404339
-0.167754 0.0404579 0.0404353
-0.165174 0.0400065 0.111984
-0.157239 0.0389571 0.166392
-0.155105 0.107426 -0.164024
-0.162717 0.110615 -0.110609
-0.165169 0.11199 -0.0399863
-0.165169 0.111989 0.0399878
-0.162717 0.110615 0.110609
-0.155105 0.107426 0.164024
-0.148658 0.157648 -0.157646
-0.155103 0.164024 -0.10742
-0.157234 0.166393 -0.038943
-0.157234 0.166392 0.0389403
-0.155103 0.164024 0.107421
-0.148658 0.157648 0.157647
-0.0879439 -0.162741 -0.163718
-0.0904107 -0.170143 -0.110449
-0.0915045 -0.172778 -0.0399371
-0.0915045 -0.172778 0.0399374
-0.0904105 -0.170143 0.11045
-0.087944 -0.162741 0.163719
-0.0586152 -0.109496 -0.170388
-0.0611091 -0.112888 -0.113497
-0.0619963 -0.114367 -0.0409353
-0.0619963 -0.114367 0.0409341
-0.0611092 -0.112888 0.113496
-0.0586152 -0.109496 0.170389
-0.0583358 -0.0395275 -0.172928
-0.0606769 -0.0406244 -0.114965
-0.0615575 -0.0410962 -0.0414098
-0.0615575 -0.0410962 0.0414105
-0.0606769 -0.0406244 0.114965
-0.0583358 -0.0395275 0.172928
-0.0583832 0.0398915 -0.172917
-0.0607173 0.0410333 -0.114957
-0.0615907 0.0415343 -0.0414081
-0.0615907 0.0415345 0.0414081
-0.0607174 0.0410334 0.114957
-0.0583832 0.0398917 0.172917
-0.0576464 0.110013 -0.170269
-0.0598731 0.113483 -0.113447
-0.0607049 0.114994 -0.0409208
-0.060705 0.114994 0.0409198
-0.0598731 0.113484 0.113446
-0.0576464 0.110013 0.17027
-0.0556565 0.162902 -0.162897
-0.0576424 0.170274 -0.109982
-0.0583668 0.17292 -0.0397878
-0.0583668 0.17292 0.0397883
-0.0576425 0.170274 0.109982
-0.0556567 0.162902 0.162898
0.00110085 -0.161794 -0.165209
0.00150837 -0.169382 -0.111239
0.00158635 -0.171996 -0.0401984
0.00158647 -0.171996 0.0401962
0.00150837 -0.169382 0.111238
0.00110072 -0.161794 0.165209
0.0555522 -0.109915 -0.170571
0.0571262 -0.113223 -0.11359
0.057808 -0.114686 -0.0409578
0.0578082 -0.114686 0.0409591
0.0571262 -0.113223 0.113588
0.055552 -0.109915 0.170571
0.0586075 -0.0391072 -0.172947
0.0609411 -0.0401246 -0.114979
0.0618085 -0.0405705 -0.0414162
0.0618086 -0.0405705 0.041417
0.0609411 -0.0401244 0.114979
0.0586076 -0.0391072 0.172949
0.0583098 0.0402213 -0.172929
0.0606315 0.0414119 -0.114966
0.0615 0.0419307 -0.0414104
0.0614998 0.0419307 0.041411
0.0606315 0.0414119 0.114966
0.0583098 0.0402214 0.172929
0.0576207 0.11017 -0.170274
0.0598384 0.113665 -0.11345
0.0606702 0.115184 -0.0409218
0.0606702 0.115184 0.0409207
0.0598385 0.113665 0.113449
0.0576207 0.11017 0.170274
0.0556532 0.162923 -0.162898
0.0576367 0.170298 -0.109982
0.0583604 0.172945 -0.0397881
0.0583607 0.172945 0.0397888
0.0576368 0.170298 0.109982
0.0556532 0.162923 0.162899
0.0978832 -0.159056 -0.163184
0.101166 -0.165758 -0.110096
0.102642 -0.168315 -0.0398242
0.102642 -0.168315 0.0398249
0.101166 -0.165758 0.110095
0.0978831 -0.159056 0.163184
0.127126 -0.0964189 -0.166773
0.131711 -0.098671 -0.111712
0.133169 -0.099661 -0.0403072
0.133169 -0.099661 0.0403113
0.131711 -0.0986712 0.111713
0.127126 -0.0964189 0.166775
0.158963 -0.0361085 -0.16638
0.167214 -0.0366788 -0.112042
0.169857 -0.0369625 -0.0404618
0.169858 -0.0369626 0.0404611
0.167214 -0.0366788 0.112038
0.158963 -0.0361082 0.166378
0.157088 0.041273 -0.166484
0.165 0.0426953 -0.112042
0.167576 0.0432297 -0.0404554
0.167575 0.0432297 0.0404558
0.165 0.0426953 0.112042
0.157088 0.041273 0.166486
0.155102 0.108933 -0.164049
0.162714 0.112326 -0.11063
0.165166 0.113741 -0.039993
0.165166 0.113741 0.0399936
0.162714 0.112326 0.11063
0.155102 0.108933 0.164049
0.148652 0.157832 -0.157648
0.155098 0.164227 -0.107424
0.157227 0.166604 -0.0389433
0.157227 0.166603 0.0389408
0.155098 0.164227 0.107424
0.148652 0.157832 0.157648
0.173975 -0.0201498 -0.15481
0.182233 -0.0224372 -0.105929
0.185248 -0.0231197 -0.0384279
0.185248 -0.0231199 0.0384281
0.182233 -0.022437 0.105927
0.173975 -0.0201498 0.154811
VECTORS force float
-0.0227508 -0.0297817 -0.0301278
-0.0224419 -0.0291322 -0.0311414
-0.0225837 -0.029319 -0.00590239
-0.0225837 -0.029319 0.00590386
-0.0224418 -0.0291318 0.0311417
-0.0227509 -0.0297818 0.0301256
-0.0136335 -0.0308322 -0.0294395
-0.0143302 -0.0305901 -0.0308716
-0.0145318 -0.0303269 -0.00584649
-0.0145317 -0.030327 0.00584657
-0.0143303 -0.0305913 0.0308714
-0.0136335 -0.0308323 0.0294393
-0.0134917 -0.00579907 -0.0296007
-0.0142114 -0.00574026 -0.0306067
-0.0144126 -0.00569506 -0.00580443
-0.0144126 -0.00569501 0.00580519
-0.0142113 -0.00573967 0.0306063
-0.0134917 -0.00579908 0.029601
-0.0135109 0.00592698 -0.0295971
-0.0142254 0.00587454 -0.030605
-0.0144283 0.00583576 -0.00580542
-0.0144283 0.00583575 0.00580664
-0.0142255 0.00587473 0.0306034
-0.0135109 0.00592721 0.0295973
-0.0133802 0.0311109 -0.0294013
-0.0140353 0.0308746 -0.0308633
-0.0142245 0.0306152 -0.00584663
-0.0142245 0.0306153 0.00584713
-0.0140353 0.0308747 0.0308629
-0.0133802 0.0311108 0.0294017
-0.0128746 0.0300516 -0.0300512
-0.0133791 0.0294033 -0.0311035
-0.0135085 0.0295987 -0.00589675
-0.0135083 0.0295987 0.00590129
-0.0133792 0.0294032 0.0311
-0.0128746 0.0300515 0.0300497
-0.0117352 -0.0275268 -0.0288688
-0.0117772 -0.0268917 -0.0307606
-0.0117478 -0.0271049 -0.00583406
-0.0117478 -0.0271049 0.00583621
-0.0117773 -0.0268917 0.0307602
-0.0117353 -0.0275268 0.0288684
-0.000135994 -0.0307651 -0.0273482
-0.00068774 -0.0303719 -0.0303013
-0.000809804 -0.0301194 -0.00575237
-0.000809827 -0.0301191 0.00575175
-0.000687803 -0.0303717 0.0303015
-0.000135978 -0.030765 0.0273483
-0.000875013 -0.00554764 -0.027522
-0.00122267 -0.00547797 -0.0300426
-0.00133755 -0.00542547 -0.0057357
-0.00133747 -0.005426 0.00573481
-0.00122268 -0.00547853 0.0300427
-0.000874967 -0.00554766 0.0275224
-0.00107938 0.00595617 -0.02752
-0.00143968 0.00591335 -0.0300418
-0.00155425 0.00587677 -0.00573406
-0.00155424 0.00587694 0.00573352
-0.00143974 0.0059135 0.030042
-0.00107938 0.00595596 0.0275206
-0.000995717 0.0306893 -0.0272928
-0.00132921 0.0303632 -0.0303037
-0.00143399 0.0301107 -0.00575914
-0.00143403 0.0301107 0.00575811
-0.00132919 0.0303634 0.0303048
-0.00099568 0.0306896 0.0272924
-0.000637816 0.0280395 -0.0280282
-0.000991493 0.0273038 -0.0306306
-0.0010692 0.0275276 -0.00582246
-0.00106911 0.0275277 0.00582213
-0.000991603 0.0273037 0.0306318
-0.000637756 0.0280394 0.0280275
0.00023241 -0.0244685 -0.0286561
0.000404033 -0.0241042 -0.0304761
0.00044735 -0.024294 -0.00579904
0.000447373 -0.0242941 0.00579915
0.000404002 -0.0241041 0.0304755
0.000232542 -0.0244685 0.0286557
-0.000587456 -0.0332851 -0.0273299
-0.000749693 -0.0328068 -0.0302916
-0.000774247 -0.0325805 -0.00578122
-0.000774238 -0.0325805 0.00577951
-0.000749814 -0.0328068 0.0302918
-0.000587558 -0.0332852 0.0273304
0.00136851 -0.00578143 -0.0275184
0.00174869 -0.0056473 -0.0300345
0.00185694 -0.00558319 -0.00573158
0.00185706 -0.0055832 0.00573162
0.00174867 -0.00564743 0.0300344
0.0013686 -0.00578151 0.02752
0.00100559 0.00603517 -0.0275328
0.0013632 0.00599912 -0.0300459
0.00147712 0.0059723 -0.00573586
0.00147703 0.0059723 0.00573542
0.00136323 0.00599938 0.0300453
0.00100556 0.00603514 0.0275331
0.000963033 0.0309045 -0.0273
0.00129087 0.0305994 -0.030307
0.00139423 0.0303518 -0.00575862
0.00139423 0.0303518 0.00575817
0.00129088 0.0305995 0.0303075
0.000963027 0.0309046 0.0272998
0.000625996 0.0280976 -0.0280293
0.000978481 0.0273648 -0.0306309
0.0010551 0.0275906 -0.00582324
0.00105524 0.0275906 0.00582318
0.000978547 0.0273648 0.030632
0.00062597 0.0280976 0.0280285
0.0216534 -0.0227583 -0.0284375
0.0216966 -0.0225008 -0.0307762
0.0217678 -0.022736 -0.00586436
0.0217677 -0.0227361 0.00586417
0.0216965 -0.0225009 0.0307753
0.0216533 -0.0227583 0.0284385
-0.0697816 -0.000820429 -0.0359115
-0.0703723 -0.0010465 -0.0331026
-0.0706676 -0.00114668 -0.00641817
-0.0706681 -0.00114637 0.00641827
-0.0703718 -0.00104686 0.0331041
-0.0697816 -0.000820191 0.0359152
0.0165962 -0.00144853 -0.0295179
0.0176799 -0.00133638 -0.0305593
0.0179692 -0.00118749 -0.00579457
0.0179693 -0.00118759 0.00579319
0.0176803 -0.00133622 0.030556
0.0165961 -0.00144808 0.0295179
0.0132483 0.00530804 -0.0296995
0.0139287 0.00530597 -0.0306312
0.0141262 0.00532279 -0.00581098
0.0141256 0.00532306 0.00581304
0.0139288 0.00530611 0.0306293
0.0132483 0.00530728 0.0297012
0.0133892 0.0328672 -0.029447
0.0140471 0.0328115 -0.030883
0.0142354 0.0325563 -0.00584687
0.0142355 0.0325562 0.00584723
0.0140471 0.0328116 0.030883
0.0133892 0.0328676 0.0294469
0.0128556 0.0306553 -0.030052
0.013357 0.0300316 -0.0311067
0.0134849 0.0302393 -0.00589711
0.0134849 0.0302392 0.00590128
0.0133569 0.0300316 0.0311038
0.0128556 0.0306553 0.0300504
0.0943213 -0.0468673 -0.0285949
0.0943718 -0.0462109 -0.0307126
0.0948066 -0.0460278 -0.00566675
0.0948073 -0.0460282 0.00566258
0.0943713 -0.0462105 0.0307152
0.0943216 -0.0468674 0.0285944
SCALARS mass float 1
LOOKUP_TABLE default
1
1
1
1
1
1
1
1
1
1
1
1
1
1
1
1
1
1
1
1
1
1
1
1
1
1
1
1
1
1
1
1
1
1
1
1
1
1
1
1
1
1
1
1
1
1
1
1
1
1
1
1
1
1
1
1
1
1
1
1
1
1
1
1
1
1
1
1
1
1
1
1
1
1
1
1
1
1
1
1
1
1
1
1
1
1
1
1
1
1
1
1
1
1
1
1
1
1
1
1
1
1
1
1
1
1
1
1
1
1
1
1
1
1
1
1
1
1
1
1
1
1
1
1
1
1
1
1
1
1
1
1
1
1
1
1
1
1
1
1
1
1
1
1
1
1
1
1
1
1
