# vtk DataFile Version 3.0
Molecular Dynamics Particle Data
ASCII
DATASET POLYDATA
POINTS 150 float
0.422308 0.421984 0.42195
0.418786 0.418436 0.562148
0.417912 0.417545 0.688224
0.417912 0.417545 0.811775
0.418786 0.418436 0.937851
0.422308 0.421984 1.07805
0.419794 0.562191 0.418412
0.415686 0.560645 0.560611
0.414708 0.56011 0.68774
0.414708 0.56011 0.81226
0.415685 0.560645 0.939389
0.419794 0.562191 1.08159
0.419035 0.688238 0.417524
0.414806 0.687751 0.560077
0.41379 0.687575 0.687564
0.41379 0.687575 0.812436
0.414806 0.687751 0.939924
0.419035 0.688238 1.08248
0.419043 0.811772 0.417525
0.414817 0.812262 0.560077
0.4138 0.812439 0.687564
0.4138 0.812439 0.812435
0.414817 0.812262 0.939923
0.419043 0.811772 1.08248
0.419884 0.937836 0.418418
0.415788 0.939387 0.560614
0.414818 0.939924 0.687742
0.414818 0.939924 0.812259
0.415788 0.939387 0.939386
0.419884 0.937836 1.08158
0.423388 1.07803 0.421967
0.419884 1.08158 0.562164
0.419044 1.08248 0.688229
0.419044 1.08248 0.811769
0.419884 1.08158 0.937835
0.423388 1.07803 1.07803
0.566047 0.418695 0.418478
0.564766 0.414585 0.560652
0.564324 0.413576 0.687754
0.564324 0.413576 0.812246
0.564766 0.414585 0.939348
0.566047 0.418695 1.08152
0.574005 0.560943 0.414535
0.572797 0.559243 0.559046
0.57243 0.558655 0.687255
0.57243 0.558655 0.812745
0.572797 0.559243 0.940954
0.574005 0.560943 1.08547
0.574121 0.687857 0.413553
0.572947 0.687329 0.558461
0.572581 0.687138 0.687065
0.572581 0.687138 0.812936
0.572947 0.68733 0.941539
0.574121 0.687857 1.08645
0.574133 0.81222 0.413556
0.572964 0.812762 0.558463
0.572601 0.81296 0.687065
0.572601 0.81296 0.812935
0.572964 0.812762 0.941537
0.574133 0.81222 1.08644
0.574441 0.93922 0.414569
0.573317 0.940944 0.559063
0.572969 0.941543 0.687261
0.572969 0.941543 0.812739
0.573317 0.940944 0.940937
0.574441 0.93922 1.08543
0.575438 1.08133 0.418675
0.574442 1.08543 0.560785
0.574139 1.08644 0.6878
0.574139 1.08644 0.812201
0.574442 1.08543 0.939214
0.575438 1.08133 1.08133
0.70074 0.418759 0.417858
0.700923 0.414606 0.560306
0.700957 0.413598 0.687643
0.700957 0.413598 0.812356
0.700923 0.414606 0.939693
0.70074 0.418759 1.08214
0.724649 0.561165 0.414447
0.72556 0.55951 0.559003
0.725862 0.558935 0.687244
0.725862 0.558935 0.812757
0.72556 0.55951 0.940997
0.724649 0.561165 1.08555
0.72588 0.688038 0.413542
0.72704 0.687539 0.558453
0.7274 0.687357 0.687062
0.7274 0.687357 0.812938
0.72704 0.687539 0.941547
0.72588 0.688038 1.08646
0.725846 0.81231 0.413553
0.727011 0.812869 0.558461
0.727372 0.813072 0.687065
0.727372 0.813072 0.812936
0.727011 0.812869 0.941539
0.725846 0.81231 1.08645
0.725554 0.939247 0.414569
0.726676 0.940977 0.559063
0.727024 0.941578 0.68726
0.727024 0.941578 0.812739
0.726676 0.940977 0.940937
0.725554 0.939247 1.08543
0.724562 1.08133 0.418675
0.725557 1.08543 0.560785
0.72586 1.08645 0.6878
0.725861 1.08645 0.812201
0.725557 1.08543 0.939215
0.724562 1.08133 1.08133
0.836608 0.420496 0.418761
0.838255 0.416815 0.56083
0.83881 0.415855 0.687815
0.83881 0.415855 0.812185
0.838255 0.416815 0.93917
0.836608 0.420496 1.08124
0.875565 0.564319 0.417718
0.878776 0.563145 0.560332
0.879545 0.562723 0.687655
0.879545 0.562723 0.812346
0.878776 0.563145 0.939669
0.875565 0.564319 1.08228
0.881293 0.689431 0.417501
0.885582 0.689147 0.560043
0.88661 0.689018 0.687553
0.88661 0.689018 0.812447
0.885582 0.689147 0.939956
0.881293 0.689431 1.0825
0.880932 0.812579 0.417503
0.885154 0.813197 0.560061
0.88617 0.8134 0.687559
0.88617 0.813399 0.812441
0.885154 0.813197 0.939939
0.880932 0.812579 1.0825
0.880115 0.938098 0.418413
0.884211 0.939693 0.56061
0.88518 0.940241 0.68774
0.88518 0.940241 0.812261
0.884211 0.939693 0.93939
0.880115 0.938098 1.08159
0.876611 1.07805 0.421967
0.880115 1.0816 0.562164
0.880954 1.0825 0.688229
0.880954 1.0825 0.811769
0.880115 1.0816 0.937835
0.876611 1.07805 1.07803
0.980088 0.495927 0.423937
0.984086 0.495057 0.563066
0.985111 0.494872 0.688518
0.985111 0.494872 0.811483
0.984086 0.495057 0.936934
0.980088 0.495927 1.07606
VERTICES 150 300
1 0
1 1
1 2
1 3
1 4
1 5
1 6
1 7
1 8
1 9
1 10
1 11
1 12
1 13
1 14
1 15
1 16
1 17
1 18
1 19
1 20
1 21
1 22
1 23
1 24
1 25
1 26
1 27
1 28
1 29
1 30
1 31
1 32
1 33
1 34
1 35
1 36
1 37
1 38
1 39
1 40
1 41
1 42
1 43
1 44
1 45
1 46
1 47
1 48
1 49
1 50
1 51
1 52
1 53
1 54
1 55
1 56
1 57
1 58
1 59
1 60
1 61
1 62
1 63
1 64
1 65
1 66
1 67
1 68
1 69
1 70
1 71
1 72
1 73
1 74
1 75
1 76
1 77
1 78
1 79
1 80
1 81
1 82
1 83
1 84
1 85
1 86
1 87
1 88
1 89
1 90
1 91
1 92
1 93
1 94
1 95
1 96
1 97
1 98
1 99
1 100
1 101
1 102
1 103
1 104
1 105
1 106
1 107
1 108
1 109
1 110
1 111
1 112
1 113
1 114
1 115
1 116
1 117
1 118
1 119
1 120
1 121
1 122
1 123
1 124
1 125
1 126
1 127
1 128
1 129
1 130
1 131
1 132
1 133
1 134
1 135
1 136
1 137
1 138
1 139
1 140
1 141
1 142
1 143
1 144
1 145
1 146
1 147
1 148
1 149
POINT_DATA 150
VECTORS velocity float
-0.152172 -0.154067 -0.154232
-0.158523 -0.160492 -0.103394
-0.160763 -0.16281 -0.0379415
-0.160763 -0.16281 0.0379379
-0.158523 -0.160492 0.103394
-0.152172 -0.154067 0.154234
-0.153738 -0.103203 -0.160619
-0.161327 -0.106414 -0.106565
-0.163768 -0.1078 -0.0389843
-0.163768 -0.1078 0.0389846
-0.161327 -0.106414 0.106564
-0.153738 -0.103203 0.160619
-0.155518 -0.0378789 -0.162923
-0.163385 -0.0389325 -0.107949
-0.165926 -0.0393858 -0.0394352
-0.165926 -0.0393858 0.0394367
-0.163385 -0.0389324 0.10795
-0.155518 -0.037879 0.162922
-0.155497 0.0379288 -0.16292
-0.163355 0.0389963 -0.107947
-0.165896 0.0394548 -0.0394343
-0.165896 0.0394548 0.0394355
-0.163355 0.0389962 0.107948
-0.155497 0.0379288 0.162918
-0.153392 0.103333 -0.160596
-0.160935 0.106557 -0.106553
-0.163351 0.107953 -0.038979
-0.163351 0.107952 0.0389805
-0.160935 0.106557 0.106553
-0.153392 0.103333 0.160595
-0.146997 0.154166 -0.154164
-0.153391 0.160596 -0.103328
-0.155493 0.162919 -0.0379181
-0.155492 0.162919 0.0379149
-0.153391 0.160596 0.103329
-0.146997 0.154166 0.154165
-0.0862481 -0.159508 -0.160345
-0.0887211 -0.166964 -0.106405
-0.0898168 -0.169552 -0.0389318
-0.0898167 -0.169551 0.0389318
-0.0887209 -0.166964 0.106406
-0.0862482 -0.159508 0.160346
-0.0584702 -0.10547 -0.167164
-0.0609077 -0.108915 -0.109519
-0.0617812 -0.110415 -0.039952
-0.0617811 -0.110415 0.0399509
-0.0609077 -0.108915 0.109518
-0.0584702 -0.10547 0.167165
-0.0581282 -0.0385561 -0.169662
-0.0604337 -0.0396734 -0.111009
-0.0613011 -0.0401543 -0.0404316
-0.0613011 -0.0401543 0.0404324
-0.0604337 -0.0396732 0.111008
-0.0581282 -0.0385561 0.169663
-0.0581528 0.0388724 -0.169652
-0.0604499 0.0400312 -0.111001
-0.06131 0.0405393 -0.0404299
-0.0613101 0.0405395 0.04043
-0.06045 0.0400313 0.111
-0.0581528 0.0388726 0.169652
-0.0574254 0.105983 -0.167053
-0.0596182 0.109499 -0.109469
-0.0604381 0.11103 -0.0399369
-0.0604381 0.11103 0.039936
-0.0596183 0.109499 0.109468
-0.0574254 0.105982 0.167054
-0.0554711 0.159623 -0.159619
-0.0574218 0.167057 -0.105958
-0.0581374 0.169654 -0.0387843
-0.0581375 0.169654 0.0387848
-0.0574219 0.167057 0.105957
-0.0554713 0.159623 0.159619
0.00107485 -0.158871 -0.161845
0.00146548 -0.166485 -0.107226
0.0015384 -0.169056 -0.0391997
0.00153852 -0.169056 0.0391974
0.0014655 -0.166485 0.107225
0.00107471 -0.158871 0.161845
0.0554765 -0.105625 -0.167348
0.0570734 -0.108992 -0.109613
0.057758 -0.110471 -0.0399714
0.0577582 -0.110471 0.0399729
0.0570734 -0.108992 0.109611
0.0554764 -0.105625 0.167349
0.0583402 -0.0381165 -0.169683
0.0606341 -0.0391608 -0.111024
0.0614888 -0.039617 -0.0404382
0.0614889 -0.039617 0.0404391
0.0606341 -0.0391607 0.111024
0.0583403 -0.0381165 0.169684
0.0580875 0.0391886 -0.169663
0.0603726 0.0403956 -0.111009
0.061228 0.0409203 -0.0404321
0.0612278 0.0409202 0.0404327
0.0603726 0.0403956 0.111009
0.0580875 0.0391886 0.169663
0.0574035 0.106114 -0.167057
0.0595881 0.109653 -0.109472
0.0604081 0.111192 -0.0399379
0.060408 0.111192 0.0399368
0.0595881 0.109653 0.109471
0.0574035 0.106114 0.167057
0.055469 0.159637 -0.159619
0.0574175 0.167074 -0.105958
0.0581325 0.169673 -0.0387845
0.0581328 0.169673 0.0387852
0.0574176 0.167075 0.105958
0.0554691 0.159637 0.15962
0.0950426 -0.156291 -0.159855
0.0983248 -0.163014 -0.106052
0.0997848 -0.165524 -0.0388148
0.0997847 -0.165524 0.0388155
0.0983248 -0.163014 0.106051
0.0950425 -0.156291 0.159855
0.133414 -0.0954951 -0.162734
0.138172 -0.0977872 -0.107441
0.139702 -0.0987904 -0.039246
0.139702 -0.0987904 0.0392501
0.138172 -0.0977873 0.107442
0.133414 -0.0954951 0.162736
0.15691 -0.0354733 -0.162917
0.165041 -0.0360771 -0.108011
0.167635 -0.0363842 -0.0394632
0.167635 -0.0363843 0.0394626
0.165041 -0.0360771 0.108008
0.15691 -0.035473 0.162915
0.155375 0.0403019 -0.162999
0.163214 0.0417352 -0.108002
0.165751 0.0422706 -0.039455
0.16575 0.0422706 0.0394551
0.163214 0.0417352 0.108003
0.155375 0.040302 0.163001
0.153389 0.104621 -0.160616
0.160932 0.108028 -0.106571
0.163347 0.109462 -0.0389857
0.163347 0.109462 0.0389863
0.160932 0.108028 0.106571
0.153389 0.104621 0.160616
0.146992 0.154292 -0.154166
0.153387 0.160737 -0.103331
0.155488 0.163067 -0.0379183
0.155488 0.163067 0.0379153
0.153387 0.160737 0.103331
0.146993 0.154292 0.154166
0.164545 -0.0153074 -0.151404
0.172678 -0.0175811 -0.101828
0.175579 -0.0182426 -0.0374037
0.175579 -0.0182427 0.0374044
0.172678 -0.017581 0.101826
0.164545 -0.0153074 0.151405
VECTORS force float
-0.0329101 -0.0398515 -0.0402555
-0.0326907 -0.0394644 -0.0524342
-0.0333026 -0.0402003 -0.0159562
-0.0333025 -0.0402003 0.015958
-0.0326906 -0.0394641 0.0524348
-0.0329102 -0.0398516 0.0402527
-0.0220125 -0.0520515 -0.0398225
-0.0228066 -0.0516041 -0.051923
-0.0234188 -0.051482 -0.0156109
-0.0234188 -0.051482 0.0156114
-0.0228068 -0.051605 0.0519221
-0.0220125 -0.0520516 0.0398222
-0.0220635 -0.0158332 -0.0405314
-0.0229143 -0.0154872 -0.0518022
-0.0235314 -0.0153763 -0.015499
-0.0235314 -0.0153762 0.0155014
-0.0229141 -0.0154865 0.0518005
-0.0220634 -0.0158333 0.0405318
-0.0220728 0.0159748 -0.0405269
-0.022917 0.0156429 -0.0517997
-0.0235356 0.0155414 -0.0154998
-0.0235356 0.0155414 0.0155027
-0.0229171 0.0156425 0.0517967
-0.0220728 0.0159752 0.0405269
-0.021581 0.0523596 -0.0397775
-0.0223262 0.0519207 -0.0519079
-0.0229154 0.051808 -0.0156118
-0.0229154 0.0518081 0.0156132
-0.0223262 0.0519212 0.0519068
-0.0215809 0.0523593 0.0397778
-0.0210427 0.0401564 -0.040157
-0.0215796 0.0397792 -0.0523513
-0.0220696 0.0405285 -0.0159388
-0.0220693 0.0405285 0.0159454
-0.0215796 0.0397791 0.0523464
-0.0210427 0.0401564 0.0401547
-0.023484 -0.0377403 -0.0392134
-0.0233015 -0.0373593 -0.051747
-0.0233055 -0.0381339 -0.0155815
-0.0233055 -0.0381338 0.0155845
-0.0233015 -0.0373593 0.051746
-0.023484 -0.0377403 0.0392131
-0.00326265 -0.0513466 -0.0377914
-0.00383239 -0.0507039 -0.0509056
-0.00398877 -0.050583 -0.0151908
-0.0039888 -0.0505828 0.0151896
-0.00383247 -0.0507035 0.0509068
-0.00326264 -0.0513466 0.0377913
-0.00374327 -0.0151843 -0.0384871
-0.00410083 -0.0148188 -0.050773
-0.00425259 -0.014687 -0.0151045
-0.00425246 -0.0146875 0.015104
-0.00410087 -0.0148201 0.0507728
-0.00374321 -0.0151843 0.0384875
-0.00399383 0.0157322 -0.0384829
-0.00436544 0.0154059 -0.0507683
-0.00451802 0.0153021 -0.0151054
-0.00451802 0.0153024 0.0151047
-0.00436553 0.0154067 0.0507688
-0.00399385 0.0157319 0.0384832
-0.00388642 0.0515356 -0.0376896
-0.00422214 0.0509594 -0.0508916
-0.00435989 0.050847 -0.0151981
-0.00435995 0.050847 0.0151965
-0.00422213 0.0509595 0.0508937
-0.00388638 0.0515361 0.0376889
-0.0035399 0.0381643 -0.038154
-0.00388083 0.0377003 -0.0514702
-0.003982 0.0384899 -0.0155528
-0.00398185 0.0384899 0.0155524
-0.00388103 0.0377002 0.0514722
-0.0035398 0.0381642 0.0381527
0.000239465 -0.0346504 -0.039273
0.000407852 -0.0345345 -0.0514496
0.00046325 -0.0352557 -0.0154836
0.00046333 -0.0352558 0.0154833
0.000407685 -0.0345345 0.0514485
0.000239678 -0.0346505 0.0392731
0.00257173 -0.0541111 -0.0377718
0.0022714 -0.0534287 -0.0508875
0.0022432 -0.0533591 -0.0152214
0.00224318 -0.0533591 0.0152203
0.00227122 -0.0534286 0.050886
0.00257156 -0.0541112 0.0377728
0.00444465 -0.0153209 -0.038479
0.0048532 -0.0148867 -0.0507642
0.00500217 -0.0147447 -0.0151033
0.00500235 -0.0147447 0.0151035
0.00485313 -0.0148869 0.0507639
0.00444479 -0.0153209 0.0384814
0.00390428 0.0159393 -0.0384978
0.00427152 0.0156196 -0.0507774
0.00442258 0.0155312 -0.0151054
0.00442245 0.0155312 0.0151053
0.00427155 0.0156201 0.0507767
0.00390427 0.0159393 0.038498
0.00384323 0.0518257 -0.0376976
0.00417089 0.0512819 -0.0508976
0.00430593 0.0511789 -0.0151967
0.00430594 0.0511789 0.0151958
0.00417089 0.051282 0.0508983
0.00384321 0.0518257 0.0376973
0.00352733 0.038219 -0.0381554
0.00386696 0.0377597 -0.0514707
0.00396646 0.0385518 -0.0155539
0.00396667 0.0385518 0.0155537
0.00386706 0.0377596 0.0514725
0.00352723 0.038219 0.0381542
0.0365544 -0.0332663 -0.0387604
0.0365205 -0.0331333 -0.0517271
0.0368103 -0.0339056 -0.0156356
0.0368101 -0.0339057 0.0156353
0.0365203 -0.0331336 0.0517252
0.0365542 -0.0332663 0.0387625
-0.0533115 -0.0205829 -0.0453407
-0.0560855 -0.0195439 -0.0539121
-0.0571379 -0.019199 -0.0161071
-0.057138 -0.0191988 0.0161078
-0.0560852 -0.0195442 0.0539121
-0.0533111 -0.0205831 0.0453459
0.0251999 -0.0127747 -0.0403887
0.0265356 -0.0122001 -0.0517401
0.027273 -0.011887 -0.0154905
0.0272732 -0.0118872 0.0154892
0.026536 -0.0121999 0.0517354
0.0251997 -0.0127737 0.0403886
0.0217649 0.0155652 -0.0406542
0.0225662 0.0153306 -0.0518438
0.0231768 0.0152926 -0.0155108
0.0231761 0.0152931 0.0155141
0.0225663 0.0153305 0.0518401
0.021765 0.015564 0.040657
0.0215825 0.0549932 -0.0398255
0.022329 0.0548158 -0.0519407
0.022917 0.0547268 -0.0156094
0.0229171 0.0547266 0.0156099
0.022329 0.0548163 0.0519404
0.0215824 0.0549938 0.0398257
0.0210281 0.0407044 -0.0401599
0.021562 0.0403644 -0.0523575
0.0220504 0.0411321 -0.015939
0.0220504 0.0411319 0.0159451
0.0215619 0.0403643 0.0523531
0.0210282 0.0407044 0.0401578
0.0929894 -0.0484526 -0.0401619
0.095375 -0.0494546 -0.052946
0.0972342 -0.0500815 -0.0161895
0.0972345 -0.0500819 0.0161852
0.0953748 -0.0494542 0.0529473
0.0929893 -0.0484525 0.0401628
SCALARS mass float 1
LOOKUP_TABLE default
1
1
1
1
1
1
1
1
1
1
1
1
1
1
1
1
1
1
1
1
1
1
1
1
1
1
1
1
1
1
1
1
1
1
1
1
1
1
1
1
1
1
1
1
1
1
1
1
1
1
1
1
1
1
1
1
1
1
1
1
1
1
1
1
1
1
1
1
1
1
1
1
1
1
1
1
1
1
1
1
1
1
1
1
1
1
1
1
1
1
1
1
1
1
1
1
1
1
1
1
1
1
1
1
1
1
1
1
1
1
1
1
1
1
1
1
1
1
1
1
1
1
1
1
1
1
1
1
1
1
1
1
1
1
1
1
1
1
1
1
1
1
1
1
1
1
1
1
1
1
