# vtk DataFile Version 3.0
Molecular Dynamics Particle Data
ASCII
DATASET POLYDATA
POINTS 50 float
0.394411 0.394007 0.393832
0.390451 0.389665 0.564586
0.397333 0.38957 0.73584
0.401907 0.393906 0.906144
0.397259 0.564586 0.389542
0.392276 0.563331 0.563174
0.392587 0.563176 0.736889
0.397649 0.564398 0.91045
0.397634 0.735659 0.38956
0.392648 0.736905 0.563149
0.392664 0.736865 0.736857
0.397656 0.735607 0.91044
0.401927 0.906106 0.393905
0.397655 0.910447 0.564396
0.397657 0.910441 0.735606
0.401929 0.906096 0.906095
0.565627 0.39075 0.389767
0.56405 0.385746 0.564481
0.59967 0.385603 0.737372
0.599954 0.390514 0.909795
0.598888 0.563975 0.385498
0.598781 0.562653 0.562165
0.599741 0.562169 0.738075
0.599961 0.563445 0.91448
0.599998 0.736889 0.385577
0.599985 0.738253 0.562081
0.599992 0.737995 0.73795
0.6 0.736579 0.914426
0.59998 0.909565 0.390507
0.599984 0.914483 0.563433
0.6 0.914434 0.736573
0.6 0.909497 0.909494
0.739719 0.392169 0.391294
0.73951 0.388205 0.56726
0.799702 0.387746 0.737499
0.798123 0.393937 0.907975
0.795347 0.568085 0.388505
0.801602 0.565599 0.562408
0.805262 0.564508 0.738381
0.802333 0.564441 0.910873
0.802657 0.737585 0.389548
0.80765 0.738904 0.563186
0.807353 0.737229 0.7369
0.802339 0.735638 0.910473
0.798054 0.906715 0.3939
0.802326 0.911045 0.564413
0.802339 0.910553 0.735624
0.798069 0.906108 0.906103
0.910475 0.493544 0.426916
0.916899 0.494675 0.666611
VERTICES 50 100
1 0
1 1
1 2
1 3
1 4
1 5
1 6
1 7
1 8
1 9
1 10
1 11
1 12
1 13
1 14
1 15
1 16
1 17
1 18
1 19
1 20
1 21
1 22
1 23
1 24
1 25
1 26
1 27
1 28
1 29
1 30
1 31
1 32
1 33
1 34
1 35
1 36
1 37
1 38
1 39
1 40
1 41
1 42
1 43
1 44
1 45
1 46
1 47
1 48
1 49
POINT_DATA 50
VECTORS velocity float
-0.148362 -0.149042 -0.149413
-0.153246 -0.154451 -0.0551352
-0.13821 -0.154695 0.0560256
-0.132153 -0.1493 0.149423
-0.138374 -0.0551352 -0.154749
-0.144952 -0.0568906 -0.057233
-0.144422 -0.0572288 0.057355
-0.137723 -0.0555402 0.154737
-0.137739 0.0556642 -0.154716
-0.144311 0.0573979 -0.0572796
-0.144288 0.0573106 0.0572928
-0.13771 0.0555504 0.154715
-0.132123 0.14933 -0.149304
-0.137712 0.154735 -0.0555443
-0.137709 0.154719 0.0555471
-0.132119 0.149306 0.149305
-0.0541257 -0.152318 -0.154283
-0.0578838 -0.158652 -0.0547308
0.000256017 -0.159225 0.0577268
-3.56202e-05 -0.153107 0.153735
-0.00137728 -0.0563154 -0.159375
-0.00159611 -0.058082 -0.058594
-0.000409202 -0.0585895 0.0589487
-3.80821e-05 -0.0568253 0.159382
4.32406e-05 0.0574136 -0.159275
3.14496e-05 0.0593029 -0.0587142
-2.67506e-05 0.0588361 0.0587594
-1.21087e-05 0.0568641 0.159282
-3.62035e-05 0.153285 -0.153122
-3.3822e-05 0.159417 -0.0568413
-1.32249e-05 0.159302 0.056855
-4.58626e-06 0.153127 0.153123
0.0645306 -0.150854 -0.151939
0.0631229 -0.155147 -0.0504234
0.132025 -0.159807 0.0571825
0.132231 -0.149228 0.152414
0.118529 -0.0461876 -0.158469
0.132495 -0.0537961 -0.059951
0.137196 -0.0529296 0.0618518
0.137698 -0.0554737 0.155553
0.13838 0.0584948 -0.154724
0.144946 0.0602697 -0.0572172
0.144334 0.0579464 0.0573399
0.137701 0.0556014 0.15477
0.132077 0.150669 -0.14931
0.137665 0.156041 -0.055515
0.1377 0.154947 0.0555836
0.132117 0.14933 0.14932
0.16276 -0.0160145 -0.0919024
0.170907 -0.0100243 0.0815324
VECTORS force float
-0.0082446 -0.00815579 -0.00827159
-0.00816704 -0.00775979 0.000339997
-0.00256158 -0.00791091 -9.26896e-05
-0.00245431 -0.00831691 0.00839267
-0.00256795 0.000352156 -0.00792087
-0.00281869 0.000131221 -1.53651e-05
-0.002859 -1.21147e-05 3.97496e-05
-0.00263833 0.000197374 0.00792506
-0.0026279 -0.000152385 -0.00791635
-0.00284418 6.39963e-05 -2.45065e-05
-0.00284943 3.14207e-05 2.64875e-05
-0.00263706 -0.000194905 0.00791668
-0.00246335 0.00833651 -0.00831885
-0.00263855 0.00793031 0.000196041
-0.0026372 0.00791876 -0.000195249
-0.00246123 0.00831978 0.00831951
5.65806e-05 -0.00681459 -0.00762533
-0.00120247 -0.00651485 0.000688619
0.000485002 -0.00730195 -0.000695746
-6.38505e-07 -0.00771278 0.00790062
0.000157694 -0.000656163 -0.00726669
0.000200395 -0.000764993 -0.000207312
-0.000124515 -0.000197311 0.000183983
-6.12996e-06 3.9662e-05 0.0073396
1.97896e-05 -7.01043e-06 -0.00731146
2.76243e-05 0.000223988 -0.000187768
-6.17324e-06 0.000197528 0.000189132
-2.25739e-06 -3.33106e-05 0.00731483
-7.91867e-06 0.00780249 -0.00771818
-7.70391e-06 0.00738357 3.8384e-05
-2.47589e-06 0.00732393 -3.44146e-05
-9.36775e-07 0.00772136 0.00772049
0.00464945 -0.00603722 -0.00711699
0.00410043 -0.00535995 0.000950852
-0.000292974 -0.0112797 -0.000457349
0.00253202 -0.00827033 0.00848506
-0.0232232 0.0131408 -0.0167148
-0.00351048 0.000814399 -0.00181025
-0.0135243 0.00896766 0.00952525
0.00264572 0.000190686 0.00836834
0.00292385 4.28479e-05 -0.00791555
0.00305103 -0.000156902 9.36217e-07
0.00286859 0.000353164 1.58645e-05
0.00263366 -0.000176763 0.00793531
0.00242712 0.00886322 -0.00831025
0.0026043 0.00842574 0.000203915
0.002632 0.00799957 -0.000182908
0.00246057 0.00832646 0.0083261
0.0314724 -0.0179756 0.0059231
0.0274344 -0.00933624 -0.00795609
SCALARS mass float 1
LOOKUP_TABLE default
1
1
1
1
1
1
1
1
1
1
1
1
1
1
1
1
1
1
1
1
1
1
1
1
1
1
1
1
1
1
1
1
1
1
1
1
1
1
1
1
1
1
1
1
1
1
1
1
1
1
