# vtk DataFile Version 3.0
Molecular Dynamics Particle Data
ASCII
DATASET POLYDATA
POINTS 50 float
0.409199 0.408864 0.408725
0.405728 0.405065 0.570099
0.411139 0.404993 0.730238
0.415107 0.408788 0.891251
0.411081 0.5701 0.404971
0.406754 0.569017 0.568896
0.407012 0.568898 0.731155
0.411405 0.569953 0.895023
0.411392 0.730092 0.404985
0.407062 0.731167 0.568876
0.407076 0.731136 0.731129
0.411411 0.730052 0.895014
0.415125 0.891221 0.408787
0.41141 0.89502 0.569951
0.411412 0.895016 0.73005
0.415126 0.891214 0.891213
0.571039 0.405942 0.40515
0.56983 0.401573 0.569957
0.599648 0.401482 0.731596
0.59996 0.40578 0.894467
0.599025 0.569602 0.401393
0.598942 0.568455 0.568022
0.599783 0.568026 0.732182
0.599967 0.569126 0.898584
0.599992 0.731149 0.401461
0.599982 0.732325 0.56795
0.599992 0.732113 0.732076
0.6 0.730894 0.898541
0.599986 0.894282 0.405774
0.59999 0.898585 0.569117
0.6 0.898547 0.730888
0.6 0.894229 0.894227
0.733293 0.407218 0.406446
0.733222 0.403688 0.572307
0.786498 0.40366 0.73178
0.784915 0.408812 0.892783
0.783373 0.572773 0.404261
0.788334 0.570983 0.568391
0.791479 0.569844 0.732244
0.788579 0.569989 0.895366
0.788837 0.731737 0.404974
0.793174 0.732878 0.568907
0.792937 0.731438 0.731167
0.788585 0.730077 0.895043
0.784861 0.8917 0.408783
0.788575 0.89549 0.569962
0.788585 0.895105 0.730065
0.784873 0.891224 0.891219
0.894368 0.495048 0.436136
0.899954 0.495631 0.658418
VERTICES 50 100
1 0
1 1
1 2
1 3
1 4
1 5
1 6
1 7
1 8
1 9
1 10
1 11
1 12
1 13
1 14
1 15
1 16
1 17
1 18
1 19
1 20
1 21
1 22
1 23
1 24
1 25
1 26
1 27
1 28
1 29
1 30
1 31
1 32
1 33
1 34
1 35
1 36
1 37
1 38
1 39
1 40
1 41
1 42
1 43
1 44
1 45
1 46
1 47
1 48
1 49
POINT_DATA 50
VECTORS velocity float
-0.147323 -0.14801 -0.148367
-0.152218 -0.153465 -0.0551315
-0.137867 -0.153691 0.0559906
-0.131823 -0.14825 0.148363
-0.138028 -0.0551328 -0.153744
-0.144577 -0.0568644 -0.0571891
-0.144044 -0.0571852 0.057308
-0.137372 -0.0555189 0.153732
-0.137389 0.0556373 -0.153711
-0.143935 0.0573479 -0.0572345
-0.143911 0.0572647 0.0572474
-0.137359 0.0555288 0.153711
-0.131792 0.148277 -0.148253
-0.137361 0.153729 -0.0555228
-0.137358 0.153715 0.0555255
-0.131788 0.148255 0.148254
-0.0540838 -0.151442 -0.153312
-0.0576807 -0.15781 -0.0547733
0.000191735 -0.158294 0.0577657
-3.57532e-05 -0.152128 0.152733
-0.00139956 -0.0561996 -0.158448
-0.00162063 -0.0579548 -0.058529
-0.000395542 -0.0585257 0.058886
-3.74568e-05 -0.056787 0.158446
4.02846e-05 0.0573702 -0.158343
2.77723e-05 0.0592344 -0.0586512
-2.61595e-05 0.058772 0.0586963
-1.18648e-05 0.056825 0.158349
-3.52233e-05 0.152296 -0.152143
-3.28656e-05 0.158476 -0.0568027
-1.29168e-05 0.158369 0.0568159
-4.47471e-06 0.152148 0.152144
0.0639238 -0.150063 -0.151026
0.0625765 -0.154446 -0.0505072
0.13206 -0.158378 0.057173
0.131893 -0.148183 0.151339
0.120989 -0.0476156 -0.156572
0.132877 -0.0538704 -0.0596545
0.138396 -0.0537767 0.0608791
0.137346 -0.0554519 0.1545
0.137995 0.0584521 -0.15372
0.144545 0.0602464 -0.057175
0.143956 0.0578664 0.0572957
0.137351 0.0555777 0.153764
0.13175 0.149552 -0.14826
0.137317 0.154974 -0.0554945
0.137349 0.153933 0.0555604
0.131787 0.148278 0.148268
0.159255 -0.0139959 -0.0924808
0.167897 -0.00908135 0.0822984
VECTORS force float
-0.012922 -0.0128701 -0.0130453
-0.0127718 -0.0123453 -0.000591543
-0.00450227 -0.0125546 0.000981026
-0.00434708 -0.0130927 0.0131961
-0.0045509 -0.000577616 -0.0125716
-0.00489423 -0.000828712 -0.00104049
-0.00490458 -0.00103661 0.00108024
-0.00459195 -0.000806642 0.0125758
-0.00457685 0.000873746 -0.0125631
-0.00487987 0.0011152 -0.001056
-0.0048869 0.00106615 0.00105908
-0.00458927 0.000809874 0.0125637
-0.00435724 0.0131188 -0.0130954
-0.00459126 0.0125818 -0.000808493
-0.00458946 0.012567 0.000809356
-0.00435423 0.0130969 0.0130965
-0.00109176 -0.0110813 -0.0121841
-0.00311997 -0.0106839 6.15193e-06
0.000832327 -0.0116917 8.90193e-05
3.94284e-06 -0.0122418 0.0125316
0.000298308 -0.00183807 -0.0116552
0.00029437 -0.00194959 -0.0012674
-0.000148544 -0.00125454 0.00124514
-6.2827e-06 -0.000984421 0.0117492
4.15544e-05 0.00106011 -0.0117077
4.77848e-05 0.00132491 -0.00124496
-5.48694e-06 0.00125988 0.00124765
-2.61978e-06 0.000994347 0.0117125
-1.20227e-05 0.0123679 -0.0122499
-1.18266e-05 0.0118101 -0.000987861
-3.79996e-06 0.0117261 0.000994004
-1.32524e-06 0.012254 0.0122525
0.00779105 -0.0101683 -0.011525
0.00713713 -0.0090149 0.000612159
-0.000355315 -0.0177818 0.000861411
0.00443749 -0.0130309 0.0134302
-0.0255303 0.015104 -0.0214587
-0.00405553 0.000552531 -0.00434726
-0.0101567 0.00771291 0.0100231
0.00459579 -0.000807658 0.0130852
0.00496886 0.000982121 -0.0125629
0.00518477 0.000798995 -0.00102338
0.00491486 0.00142222 0.00104495
0.00458486 0.000831774 0.0125845
0.00430903 0.0138916 -0.0130867
0.00454549 0.0133161 -0.000793527
0.00458256 0.0126811 0.000826853
0.00435338 0.0131061 0.0131054
0.0386746 -0.0222939 0.00545971
0.0332133 -0.00949134 -0.00735663
SCALARS mass float 1
LOOKUP_TABLE default
1
1
1
1
1
1
1
1
1
1
1
1
1
1
1
1
1
1
1
1
1
1
1
1
1
1
1
1
1
1
1
1
1
1
1
1
1
1
1
1
1
1
1
1
1
1
1
1
1
1
