# vtk DataFile Version 3.0
Molecular Dynamics Particle Data
ASCII
DATASET POLYDATA
POINTS 50 float
0.497056 0.497055 0.497055
0.496911 0.496909 0.599878
0.496913 0.496909 0.700123
0.497058 0.497055 0.802945
0.496913 0.599878 0.496909
0.496746 0.599866 0.599866
0.496747 0.599866 0.700135
0.496913 0.599878 0.803091
0.496913 0.700122 0.496909
0.496747 0.700135 0.599866
0.496747 0.700134 0.700134
0.496913 0.700122 0.803091
0.497058 0.802945 0.497055
0.496913 0.803091 0.599878
0.496913 0.803091 0.700122
0.497058 0.802945 0.802945
0.599892 0.496915 0.496911
0.599892 0.496749 0.599871
0.59999 0.496749 0.700138
0.6 0.496915 0.803086
0.599989 0.599872 0.496748
0.599988 0.599857 0.599854
0.599997 0.599854 0.700149
0.6 0.599867 0.803251
0.6 0.700134 0.496749
0.6 0.700148 0.599853
0.6 0.700148 0.700148
0.6 0.700133 0.803251
0.6 0.803085 0.496915
0.6 0.803251 0.599867
0.6 0.803251 0.700133
0.6 0.803085 0.803085
0.700249 0.497045 0.496939
0.700382 0.496899 0.599981
0.702973 0.496909 0.700249
0.70294 0.497055 0.802953
0.702957 0.600012 0.496891
0.703123 0.600001 0.599884
0.703233 0.599885 0.700156
0.703086 0.599879 0.803093
0.703084 0.700133 0.496908
0.703251 0.700145 0.599867
0.703252 0.700137 0.700136
0.703087 0.700123 0.803091
0.702941 0.802946 0.497055
0.703087 0.803092 0.599878
0.703087 0.803091 0.700122
0.702941 0.802945 0.802945
0.802955 0.499855 0.497273
0.803108 0.499833 0.602571
VERTICES 50 100
1 0
1 1
1 2
1 3
1 4
1 5
1 6
1 7
1 8
1 9
1 10
1 11
1 12
1 13
1 14
1 15
1 16
1 17
1 18
1 19
1 20
1 21
1 22
1 23
1 24
1 25
1 26
1 27
1 28
1 29
1 30
1 31
1 32
1 33
1 34
1 35
1 36
1 37
1 38
1 39
1 40
1 41
1 42
1 43
1 44
1 45
1 46
1 47
1 48
1 49
POINT_DATA 50
VECTORS velocity float
-0.0567866 -0.0568118 -0.056816
-0.059554 -0.0596023 -0.0042175
-0.0594637 -0.0596022 0.00422816
-0.0566783 -0.0568119 0.0568136
-0.0594679 -0.00421599 -0.0596042
-0.0626416 -0.00455776 -0.00456177
-0.0626255 -0.00456183 0.00456593
-0.0594455 -0.00422114 0.059604
-0.0594473 0.00422498 -0.0596029
-0.0626209 0.00456591 -0.00456317
-0.0626193 0.00456499 0.00456415
-0.0594446 0.0042226 0.0596031
-0.0566765 0.0568122 -0.056812
-0.0594446 0.0596034 -0.00422158
-0.0594444 0.059603 0.00422236
-0.056676 0.0568118 0.0568117
-0.00382913 -0.0594504 -0.0595537
-0.00382218 -0.0626229 -0.00443195
-0.000288895 -0.0626225 0.0046605
-1.97813e-05 -0.059451 0.0594731
-0.000327475 -0.0044059 -0.0626475
-0.000327676 -0.0048017 -0.00490332
-7.40526e-05 -0.00489917 0.0049613
-9.71702e-06 -0.00452853 0.0626326
-2.65694e-05 0.00456004 -0.0626262
-2.65878e-05 0.00495627 -0.00492443
-1.04304e-05 0.00493808 0.00493323
-2.70777e-06 0.00453456 0.0626253
-3.33773e-06 0.0594555 -0.0594515
-2.81087e-06 0.0626267 -0.00453199
-1.75012e-06 0.062625 0.00453323
-1.08738e-06 0.0594518 0.0594515
0.00633566 -0.0571689 -0.0589559
0.0086221 -0.0599944 -0.0025223
0.0574033 -0.0596035 0.00668195
0.0566556 -0.056811 0.0570501
0.0571354 -0.00173384 -0.0599368
0.0602776 -0.00205634 -0.00424501
0.0622601 -0.00419813 0.00497136
0.0594307 -0.00420365 0.0596684
0.0594156 0.00451629 -0.0596187
0.0625888 0.00486019 -0.00454812
0.062603 0.0046328 0.00458888
0.0594416 0.00423024 0.0596112
0.0566744 0.0568306 -0.0568131
0.0594421 0.0596215 -0.00422064
0.059443 0.0596097 0.00422451
0.0566759 0.0568134 0.0568125
0.0571827 -0.00265332 -0.0512142
0.0602232 -0.00308158 0.0482519
VECTORS force float
-0.490111 -0.490696 -0.490808
-0.512762 -0.513941 -0.105183
-0.509317 -0.513945 0.105443
-0.486141 -0.490701 0.490733
-0.509394 -0.105156 -0.513978
-0.53556 -0.11196 -0.112067
-0.535136 -0.112067 0.112136
-0.508819 -0.105289 0.513972
-0.508844 0.105342 -0.513956
-0.535011 0.112133 -0.112087
-0.534989 0.112114 0.112096
-0.508807 0.105304 0.51396
-0.486117 0.490708 -0.490702
-0.508808 0.513963 -0.105296
-0.508805 0.513959 0.105305
-0.486111 0.490702 0.4907
-0.0976508 -0.511199 -0.513251
-0.0973702 -0.537633 -0.109418
-0.00581948 -0.537596 0.114075
-0.000324877 -0.5112 0.511615
-0.00630438 -0.109012 -0.537959
-0.00629926 -0.116678 -0.118693
-0.00117127 -0.118625 0.119536
-0.00013741 -0.111334 0.537753
-0.00041832 0.111882 -0.537651
-0.000417363 0.119558 -0.11899
-0.000142989 0.119187 0.119098
-3.07261e-05 0.111402 0.537643
-4.29467e-05 0.511277 -0.511205
-3.5391e-05 0.537674 -0.11138
-1.7546e-05 0.537643 0.111386
-1.10487e-05 0.511215 0.51121
0.111926 -0.499678 -0.50626
0.121385 -0.523865 -0.100914
0.497469 -0.51406 0.126791
0.48626 -0.490676 0.495612
0.495309 -0.0884845 -0.51612
0.520549 -0.094728 -0.110347
0.532433 -0.109463 0.115576
0.508756 -0.105124 0.515036
0.509053 0.111436 -0.514088
0.53521 0.118293 -0.111965
0.534927 0.113245 0.112365
0.508786 0.105396 0.514066
0.486105 0.491126 -0.490715
0.508789 0.51438 -0.105284
0.508793 0.514087 0.105327
0.48611 0.490729 0.49071
0.499835 -0.0180522 -0.392759
0.529231 -0.0215924 0.368932
SCALARS mass float 1
LOOKUP_TABLE default
1
1
1
1
1
1
1
1
1
1
1
1
1
1
1
1
1
1
1
1
1
1
1
1
1
1
1
1
1
1
1
1
1
1
1
1
1
1
1
1
1
1
1
1
1
1
1
1
1
1
