# vtk DataFile Version 3.0
Molecular Dynamics Particle Data
ASCII
DATASET POLYDATA
POINTS 50 float
0.46592 0.465845 0.465822
0.464433 0.464273 0.591479
0.465262 0.464266 0.708576
0.466845 0.465838 0.834168
0.465255 0.591481 0.464262
0.463501 0.591079 0.591059
0.463558 0.59106 0.708951
0.46533 0.591457 0.835737
0.465325 0.708551 0.464265
0.46357 0.708951 0.591055
0.463574 0.708947 0.708946
0.465331 0.708544 0.835735
0.46685 0.834164 0.465837
0.465331 0.835736 0.591456
0.465331 0.835735 0.708544
0.46685 0.834163 0.834163
0.591908 0.464485 0.464308
0.591805 0.462693 0.591302
0.599719 0.462699 0.709113
0.599984 0.464481 0.835567
0.599629 0.591303 0.462672
0.599618 0.590862 0.590711
0.599928 0.590715 0.709352
0.599991 0.591132 0.837316
0.599984 0.708931 0.462695
0.599983 0.709374 0.590689
0.599992 0.709329 0.709319
0.6 0.708875 0.837306
0.6 0.835529 0.46448
0.6 0.837312 0.591128
0.6 0.837306 0.708873
0.6 0.835521 0.835521
0.709312 0.46525 0.464759
0.709714 0.463652 0.5921
0.73402 0.464168 0.709612
0.733157 0.465841 0.83458
0.733541 0.592395 0.464114
0.735209 0.59203 0.591132
0.7362 0.591242 0.709196
0.734664 0.591468 0.835823
0.734708 0.709068 0.464258
0.736465 0.709482 0.591065
0.736425 0.709037 0.708962
0.734668 0.708552 0.835744
0.733148 0.834239 0.465836
0.734667 0.83581 0.591458
0.734668 0.835752 0.708547
0.73315 0.834165 0.834164
0.834747 0.498715 0.473257
0.836741 0.498499 0.624988
VERTICES 50 100
1 0
1 1
1 2
1 3
1 4
1 5
1 6
1 7
1 8
1 9
1 10
1 11
1 12
1 13
1 14
1 15
1 16
1 17
1 18
1 19
1 20
1 21
1 22
1 23
1 24
1 25
1 26
1 27
1 28
1 29
1 30
1 31
1 32
1 33
1 34
1 35
1 36
1 37
1 38
1 39
1 40
1 41
1 42
1 43
1 44
1 45
1 46
1 47
1 48
1 49
POINT_DATA 50
VECTORS velocity float
-0.131157 -0.131673 -0.131856
-0.1362 -0.13728 -0.0478002
-0.129223 -0.137356 0.0482472
-0.123457 -0.131753 0.131797
-0.129285 -0.0477966 -0.137387
-0.135507 -0.0495109 -0.0496672
-0.135111 -0.0496642 0.0497385
-0.12878 -0.0479883 0.137377
-0.128805 0.0480447 -0.137366
-0.135036 0.0497495 -0.0496941
-0.135011 0.0497115 0.0497028
-0.128772 0.0479951 0.137366
-0.123429 0.131763 -0.131754
-0.128773 0.137372 -0.0479914
-0.128771 0.137367 0.0479934
-0.123426 0.131754 0.131754
-0.0461404 -0.136089 -0.137164
-0.0475054 -0.142511 -0.0481844
-0.000810886 -0.142514 0.0506094
-5.03024e-05 -0.136178 0.136505
-0.00162208 -0.0484252 -0.142655
-0.00173394 -0.0502493 -0.0510196
-0.000323825 -0.051014 0.051341
-3.59326e-05 -0.0492829 0.142607
-2.45435e-05 0.0496921 -0.142544
-3.34439e-05 0.051543 -0.0511336
-2.92332e-05 0.0512298 0.0511725
-1.05261e-05 0.0493111 0.142545
-2.15044e-05 0.136253 -0.136185
-1.98254e-05 0.142598 -0.0492952
-8.79136e-06 0.142553 0.0493027
-3.17873e-06 0.136188 0.136185
0.0512175 -0.134653 -0.135277
0.0503821 -0.140097 -0.0451377
0.127203 -0.138502 0.0500801
0.123494 -0.131724 0.134162
0.123914 -0.0456639 -0.137896
0.129751 -0.0473573 -0.0499406
0.133807 -0.0488848 0.0507992
0.128761 -0.0479338 0.137857
0.12912 0.0507897 -0.13738
0.135365 0.0526083 -0.0496534
0.135032 0.0501652 0.0497611
0.128766 0.0480312 0.137407
0.123415 0.132368 -0.131762
0.128757 0.137968 -0.0479764
0.128766 0.137487 0.0480109
0.123425 0.131769 0.131761
0.1349 -0.004888 -0.0915683
0.143041 -0.0053228 0.0842063
VECTORS force float
-0.0961642 -0.0975778 -0.0983521
-0.0960751 -0.0986859 -0.0698748
-0.0653024 -0.0991834 0.0717731
-0.0629549 -0.0981073 0.0983274
-0.0657185 -0.0699308 -0.0992913
-0.0677456 -0.0697869 -0.0704381
-0.066673 -0.0704329 0.0706811
-0.0644345 -0.0707157 0.0992634
-0.0644362 0.0709698 -0.0992285
-0.0664766 0.0707809 -0.0705268
-0.0664572 0.0705916 0.0705516
-0.0644029 0.0707322 0.0992257
-0.062899 0.0981574 -0.0981133
-0.0644059 0.0992574 -0.0707202
-0.0644025 0.099233 0.0707239
-0.0628938 0.0981154 0.0981147
-0.0721322 -0.0958026 -0.0988049
-0.0819558 -0.0973795 -0.0664748
0.0042226 -0.0981361 0.0711048
7.46525e-05 -0.0969875 0.0981742
-1.33097e-05 -0.0696829 -0.0983426
-0.00063324 -0.0692315 -0.0698097
-0.0002372 -0.0698695 0.070224
-5.98005e-06 -0.0701966 0.098413
0.000327232 0.0713417 -0.0982254
0.000294513 0.0710967 -0.069969
3.35409e-05 0.0701405 0.0700157
-5.46976e-06 0.0702462 0.0982466
-6.28621e-05 0.0973176 -0.0970199
-5.91353e-05 0.0985093 -0.0702091
-1.8299e-05 0.0982918 0.0702341
-5.19511e-06 0.0970262 0.0970193
0.0867986 -0.0990566 -0.0972637
0.0817957 -0.0965339 -0.0594122
0.0573322 -0.108274 0.0629083
0.063013 -0.0979865 0.102787
0.0459597 -0.0674384 -0.100828
0.0506457 -0.0709359 -0.0754966
0.0606636 -0.0671163 0.0736194
0.0643852 -0.0706299 0.100342
0.0656423 0.0732388 -0.0991756
0.0677518 0.0735468 -0.0704648
0.0665587 0.0710945 0.0705279
0.0643939 0.0707805 0.0992751
0.0628226 0.100857 -0.0981261
0.0643254 0.101898 -0.0706619
0.0643873 0.0996604 0.0707959
0.0628916 0.0981587 0.0981407
0.106363 -0.0135916 -0.021155
0.115888 -0.00777333 0.00749478
SCALARS mass float 1
LOOKUP_TABLE default
1
1
1
1
1
1
1
1
1
1
1
1
1
1
1
1
1
1
1
1
1
1
1
1
1
1
1
1
1
1
1
1
1
1
1
1
1
1
1
1
1
1
1
1
1
1
1
1
1
1
