# vtk DataFile Version 3.0
Molecular Dynamics Particle Data
ASCII
DATASET POLYDATA
POINTS 50 float
0.478454 0.478421 0.478413
0.477468 0.4774 0.595801
0.477758 0.477398 0.704219
0.47878 0.47842 0.821582
0.477755 0.595802 0.477397
0.476609 0.59557 0.595563
0.476634 0.595563 0.704441
0.477787 0.595794 0.822603
0.477785 0.70421 0.477398
0.476639 0.704441 0.595561
0.476641 0.70444 0.704439
0.477788 0.704207 0.822602
0.478782 0.821581 0.47842
0.477788 0.822602 0.595793
0.477788 0.822602 0.704207
0.478783 0.82158 0.82158
0.596057 0.477508 0.477423
0.596042 0.476346 0.595679
0.599819 0.476349 0.704522
0.59999 0.477508 0.822513
0.599788 0.59569 0.476334
0.599785 0.595432 0.595353
0.599958 0.595355 0.704681
0.599997 0.595599 0.823658
0.599989 0.704429 0.476347
0.599989 0.704687 0.595341
0.599997 0.704668 0.704664
0.6 0.704404 0.823653
0.6 0.822496 0.477508
0.6 0.823655 0.595597
0.6 0.823653 0.704403
0.6 0.822493 0.822492
0.704723 0.478108 0.477695
0.70517 0.47706 0.596209
0.721702 0.477375 0.705017
0.721219 0.478421 0.821785
0.721494 0.5965 0.477295
0.722596 0.596292 0.595641
0.72323 0.59568 0.704592
0.722209 0.5958 0.822647
0.722224 0.704472 0.477393
0.72337 0.704707 0.595568
0.723357 0.704487 0.70445
0.722211 0.704211 0.822607
0.721217 0.821609 0.478419
0.722211 0.822631 0.595794
0.722212 0.822609 0.704208
0.721217 0.821582 0.821581
0.821887 0.499151 0.48226
0.823117 0.498998 0.616652
VERTICES 50 100
1 0
1 1
1 2
1 3
1 4
1 5
1 6
1 7
1 8
1 9
1 10
1 11
1 12
1 13
1 14
1 15
1 16
1 17
1 18
1 19
1 20
1 21
1 22
1 23
1 24
1 25
1 26
1 27
1 28
1 29
1 30
1 31
1 32
1 33
1 34
1 35
1 36
1 37
1 38
1 39
1 40
1 41
1 42
1 43
1 44
1 45
1 46
1 47
1 48
1 49
POINT_DATA 50
VECTORS velocity float
-0.118327 -0.118668 -0.118771
-0.123278 -0.124008 -0.0374507
-0.119477 -0.124038 0.0376981
-0.114087 -0.1187 0.118724
-0.119505 -0.0374425 -0.124058
-0.125405 -0.0390883 -0.0391778
-0.125142 -0.0391756 0.0392218
-0.119162 -0.0375522 0.124051
-0.119185 0.0375839 -0.124044
-0.125091 0.0392241 -0.0391948
-0.12507 0.0392052 0.0392005
-0.119158 0.0375571 0.124044
-0.114067 0.118706 -0.118701
-0.119158 0.124048 -0.0375547
-0.119157 0.124045 0.0375563
-0.114064 0.118701 0.118701
-0.0356929 -0.123128 -0.123879
-0.0361351 -0.129218 -0.0381333
-0.00113629 -0.129183 0.0399374
-5.58925e-05 -0.123137 0.12334
-0.0015137 -0.0381265 -0.129295
-0.00156259 -0.0399108 -0.0405548
-0.000288643 -0.0405428 0.0408155
-3.39324e-05 -0.0388533 0.129246
-5.50931e-05 0.0391259 -0.129203
-6.00895e-05 0.0409198 -0.0406458
-3.18149e-05 0.0407189 0.0406781
-9.40873e-06 0.0388753 0.129203
-1.47633e-05 0.123179 -0.123141
-1.33872e-05 0.12923 -0.0388642
-6.62379e-06 0.129206 0.038869
-2.53843e-06 0.123142 0.123141
0.0395128 -0.121232 -0.1222
0.0395932 -0.126698 -0.0357998
0.117768 -0.12445 0.040687
0.114115 -0.118683 0.120501
0.115673 -0.0350944 -0.124493
0.121153 -0.0365493 -0.0390438
0.124312 -0.0386191 0.0400588
0.119148 -0.0375085 0.124408
0.119365 0.0398552 -0.124064
0.125277 0.0415546 -0.0391607
0.125078 0.039582 0.0392586
0.119153 0.0375874 0.124078
0.114059 0.119038 -0.118707
0.11915 0.124376 -0.0375462
0.119154 0.124118 0.037567
0.114064 0.118711 0.118706
0.12114 -0.00397129 -0.0878991
0.128231 -0.00471222 0.0818918
VECTORS force float
-0.167477 -0.169482 -0.170287
-0.169973 -0.174229 -0.140863
-0.138841 -0.174605 0.142841
-0.133236 -0.169879 0.170069
-0.139081 -0.140889 -0.17473
-0.143993 -0.143022 -0.143681
-0.142452 -0.143671 0.143971
-0.137148 -0.141708 0.174681
-0.137218 0.141937 -0.174648
-0.142176 0.144035 -0.143793
-0.142102 0.143861 0.143828
-0.137113 0.141728 0.174642
-0.133132 0.169923 -0.169882
-0.137116 0.174669 -0.141721
-0.137112 0.174649 0.141724
-0.133125 0.169885 0.169884
-0.13973 -0.170852 -0.174298
-0.147344 -0.176457 -0.138888
0.00144063 -0.176474 0.146661
1.74523e-05 -0.171256 0.172494
-0.00252952 -0.140446 -0.176846
-0.0031122 -0.142378 -0.144378
-0.000533604 -0.144429 0.145193
-4.5196e-05 -0.142617 0.17679
0.000230989 0.144145 -0.176572
0.000190446 0.146205 -0.144678
-4.81812e-07 0.144968 0.144769
-2.01169e-05 0.142689 0.176588
-6.9211e-05 0.171556 -0.171286
-6.74993e-05 0.176819 -0.142637
-2.59564e-05 0.176627 0.142663
-6.80628e-06 0.171291 0.171284
0.149385 -0.176632 -0.171446
0.1354 -0.179612 -0.132787
0.141069 -0.179972 0.13029
0.133377 -0.169761 0.177385
0.128131 -0.147147 -0.174871
0.131595 -0.149375 -0.146733
0.138933 -0.142496 0.145678
0.137118 -0.141585 0.176094
0.138668 0.149617 -0.174586
0.143703 0.152257 -0.143721
0.142259 0.144988 0.143869
0.137107 0.141806 0.174738
0.133077 0.172534 -0.169912
0.137059 0.177239 -0.141648
0.1371 0.175121 0.141782
0.133123 0.169935 0.169912
0.176958 -0.00513641 -0.0583525
0.188838 -0.00437719 0.0454153
SCALARS mass float 1
LOOKUP_TABLE default
1
1
1
1
1
1
1
1
1
1
1
1
1
1
1
1
1
1
1
1
1
1
1
1
1
1
1
1
1
1
1
1
1
1
1
1
1
1
1
1
1
1
1
1
1
1
1
1
1
1
