# vtk DataFile Version 3.0
Molecular Dynamics Particle Data
ASCII
DATASET POLYDATA
POINTS 50 float
0.4383 0.438102 0.43803
0.435813 0.435406 0.581076
0.438571 0.435375 0.7191
0.441336 0.438069 0.86195
0.438544 0.581077 0.435363
0.435518 0.580336 0.580274
0.43567 0.580276 0.719754
0.438737 0.581002 0.864633
0.438727 0.719022 0.43537
0.435699 0.719759 0.580263
0.435708 0.719744 0.71974
0.438741 0.719001 0.864629
0.441346 0.861936 0.438068
0.43874 0.864632 0.581
0.438741 0.86463 0.719001
0.441347 0.861932 0.861932
0.581791 0.435909 0.435464
0.581244 0.432823 0.58088
0.599634 0.432806 0.72008
0.599972 0.435858 0.864276
0.599315 0.580764 0.432748
0.599272 0.579968 0.579664
0.599858 0.579667 0.720469
0.599979 0.580425 0.867232
0.599984 0.719737 0.432794
0.599982 0.720544 0.579617
0.599992 0.720423 0.7204
0.6 0.719588 0.867207
0.599998 0.864173 0.435855
0.6 0.867228 0.580419
0.6 0.86721 0.719584
0.6 0.864148 0.864146
0.720742 0.436927 0.436318
0.720927 0.434307 0.582398
0.760091 0.434845 0.720407
0.758675 0.438081 0.862895
0.758687 0.582579 0.435053
0.761687 0.581743 0.580174
0.763674 0.580706 0.720294
0.761252 0.581024 0.864834
0.761389 0.720104 0.435361
0.764423 0.720883 0.580283
0.764297 0.719932 0.719768
0.761257 0.719017 0.864647
0.758646 0.862179 0.438065
0.761253 0.864872 0.581006
0.761258 0.864678 0.719009
0.758652 0.861938 0.861935
0.863393 0.497362 0.454717
0.867162 0.497256 0.641818
VERTICES 50 100
1 0
1 1
1 2
1 3
1 4
1 5
1 6
1 7
1 8
1 9
1 10
1 11
1 12
1 13
1 14
1 15
1 16
1 17
1 18
1 19
1 20
1 21
1 22
1 23
1 24
1 25
1 26
1 27
1 28
1 29
1 30
1 31
1 32
1 33
1 34
1 35
1 36
1 37
1 38
1 39
1 40
1 41
1 42
1 43
1 44
1 45
1 46
1 47
1 48
1 49
POINT_DATA 50
VECTORS velocity float
-0.143009 -0.143681 -0.143983
-0.147959 -0.149262 -0.0543198
-0.136098 -0.14943 0.0550522
-0.130107 -0.143859 0.143944
-0.136232 -0.0543229 -0.149477
-0.142684 -0.0560114 -0.0562753
-0.142168 -0.0562721 0.0563807
-0.135589 -0.0546414 0.149464
-0.13561 0.054739 -0.149447
-0.142068 0.0564101 -0.0563153
-0.142042 0.056342 0.0563272
-0.135577 0.0546503 0.149447
-0.130075 0.143879 -0.143861
-0.135578 0.14946 -0.0546449
-0.135576 0.14945 0.0546473
-0.130071 0.143862 0.143862
-0.0530882 -0.147572 -0.149141
-0.056005 -0.154032 -0.054175
-0.000105552 -0.154273 0.0570856
-3.88215e-05 -0.147972 0.148486
-0.00150013 -0.0551056 -0.154431
-0.00170021 -0.0568523 -0.0575748
-0.000362092 -0.0575738 0.0579325
-3.63986e-05 -0.0558813 0.154407
2.32353e-05 0.0564288 -0.154316
1.05419e-05 0.0582472 -0.0577007
-2.57273e-05 0.057816 0.0577445
-1.1285e-05 0.0559163 0.154321
-3.12502e-05 0.148105 -0.147984
-2.8868e-05 0.15442 -0.0558958
-1.16362e-05 0.154336 0.0559072
-4.07698e-06 0.147988 0.147985
0.0610478 -0.146353 -0.14702
0.0598393 -0.151127 -0.0501849
0.131841 -0.152615 0.0562181
0.130158 -0.143808 0.146805
0.125551 -0.0501358 -0.150742
0.133445 -0.0534779 -0.0577635
0.139152 -0.0544522 0.0583836
0.135564 -0.0545765 0.150114
0.136111 0.0575658 -0.149456
0.142586 0.0593863 -0.0562638
0.142078 0.0568706 0.0563794
0.13557 0.0546941 0.149495
0.130045 0.144923 -0.143869
0.135547 0.150484 -0.0546209
0.135569 0.149635 0.0546765
0.13007 0.143883 0.143873
0.149935 -0.00903767 -0.0931542
0.159251 -0.00716648 0.0836804
VECTORS force float
-0.0338205 -0.034113 -0.0345198
-0.0333789 -0.0334461 -0.0105919
-0.0157212 -0.0338289 0.011548
-0.0152643 -0.03452 0.0346963
-0.0159668 -0.0105966 -0.0338767
-0.0166411 -0.0107006 -0.0111134
-0.0163995 -0.0111107 0.0112193
-0.0157174 -0.0110665 0.0338758
-0.015691 0.0112169 -0.0338506
-0.0163248 0.0112923 -0.0111552
-0.0163344 0.0111832 0.0111639
-0.0157067 0.0110742 0.0338515
-0.0152649 0.0345616 -0.0345248
-0.0157083 0.0338805 -0.0110688
-0.015707 0.0338568 0.0110706
-0.0152615 0.0345268 0.0345263
-0.0120876 -0.031358 -0.0333087
-0.0173248 -0.0309157 -0.00887862
0.0023781 -0.0322801 0.00983174
3.23819e-05 -0.0330062 0.0336721
0.000715264 -0.0120217 -0.0322824
0.000470792 -0.0119162 -0.01121
-0.000179338 -0.0112054 0.0112479
-3.43899e-06 -0.0110988 0.0324164
0.000146186 0.0114384 -0.0323233
0.000139245 0.0115505 -0.0112068
4.02195e-06 0.0112533 0.0112176
-3.07237e-06 0.0111209 0.0323344
-3.17367e-05 0.0332422 -0.0330256
-3.10757e-05 0.0325197 -0.0111065
-9.85154e-06 0.0323627 0.01112
-2.85703e-06 0.0330316 0.0330283
0.0244575 -0.0309601 -0.0323353
0.0237273 -0.0280459 -0.0063341
0.0049205 -0.0435287 0.0114171
0.0153525 -0.0344239 0.0358211
-0.0154511 0.00519362 -0.0399962
0.000916839 -0.00763517 -0.0172973
0.0053778 -0.00427573 0.0176794
0.015702 -0.0110413 0.0345565
0.0163795 0.0109977 -0.0338439
0.0169823 0.0109251 -0.011108
0.016391 0.0115418 0.0111377
0.0156998 0.0111044 0.0338765
0.0151921 0.0361851 -0.0345173
0.0156375 0.0354489 -0.011038
0.0156957 0.0340896 0.0111128
0.0152601 0.0345468 0.0345424
0.0558483 -0.0253713 4.90629e-05
0.0566065 -0.00967806 -0.00649964
SCALARS mass float 1
LOOKUP_TABLE default
1
1
1
1
1
1
1
1
1
1
1
1
1
1
1
1
1
1
1
1
1
1
1
1
1
1
1
1
1
1
1
1
1
1
1
1
1
1
1
1
1
1
1
1
1
1
1
1
1
1
