# vtk DataFile Version 3.0
Molecular Dynamics Particle Data
ASCII
DATASET POLYDATA
POINTS 50 float
0.4524 0.452267 0.452222
0.45041 0.450132 0.586431
0.452081 0.450115 0.713677
0.454249 0.452249 0.847763
0.452066 0.586432 0.450107
0.449681 0.58586 0.585822
0.449783 0.585823 0.714196
0.452196 0.586386 0.84989
0.452189 0.713628 0.450112
0.449803 0.714198 0.585815
0.449809 0.714189 0.714187
0.452199 0.713616 0.849887
0.454257 0.847754 0.452248
0.452198 0.849889 0.586385
0.452199 0.849888 0.713616
0.454258 0.847752 0.847752
0.587014 0.450476 0.450178
0.586728 0.448038 0.586231
0.599659 0.448039 0.714445
0.599978 0.450457 0.84963
0.599468 0.586191 0.447996
0.599445 0.58557 0.585342
0.599894 0.585345 0.714755
0.599985 0.585933 0.851987
0.599984 0.714175 0.448031
0.599982 0.714801 0.585308
0.599992 0.714721 0.714705
0.6 0.714076 0.85197
0.6 0.849562 0.450455
0.6 0.851982 0.585929
0.6 0.851971 0.714073
0.6 0.849547 0.849546
0.71479 0.451373 0.450825
0.715091 0.449246 0.587366
0.746949 0.449852 0.714864
0.745757 0.452256 0.848429
0.746082 0.587588 0.449897
0.748364 0.587029 0.58584
0.749811 0.586103 0.714565
0.747796 0.586403 0.85003
0.747881 0.714427 0.450104
0.750271 0.715023 0.58583
0.750192 0.714327 0.714209
0.7478 0.713628 0.849901
0.745739 0.847902 0.452246
0.747798 0.850036 0.586389
0.7478 0.849919 0.713621
0.745742 0.847756 0.847754
0.848701 0.498144 0.464024
0.851553 0.497925 0.63342
VERTICES 50 100
1 0
1 1
1 2
1 3
1 4
1 5
1 6
1 7
1 8
1 9
1 10
1 11
1 12
1 13
1 14
1 15
1 16
1 17
1 18
1 19
1 20
1 21
1 22
1 23
1 24
1 25
1 26
1 27
1 28
1 29
1 30
1 31
1 32
1 33
1 34
1 35
1 36
1 37
1 38
1 39
1 40
1 41
1 42
1 43
1 44
1 45
1 46
1 47
1 48
1 49
POINT_DATA 50
VECTORS velocity float
-0.138599 -0.139221 -0.139474
-0.143601 -0.144856 -0.0524832
-0.13384 -0.144981 0.0530975
-0.127917 -0.139354 0.13942
-0.133943 -0.0524844 -0.145022
-0.14031 -0.0541754 -0.0543918
-0.139833 -0.0543887 0.0544836
-0.133343 -0.0527478 0.145009
-0.133367 0.0528274 -0.144996
-0.139743 0.0545045 -0.0544264
-0.139717 0.0544495 0.0544371
-0.133332 0.0527558 0.144995
-0.127885 0.139369 -0.139356
-0.133333 0.145005 -0.052751
-0.133331 0.144997 0.0527533
-0.127882 0.139356 0.139356
-0.0510635 -0.143396 -0.144745
-0.0533293 -0.149883 -0.0525564
-0.000404815 -0.14999 0.0553148
-4.33509e-05 -0.143629 0.144064
-0.00157591 -0.0531467 -0.150145
-0.00174179 -0.0549191 -0.0556969
-0.000343976 -0.0556953 0.0560456
-3.61824e-05 -0.0539983 0.150107
4.15949e-06 0.0544972 -0.150028
-7.25583e-06 0.0563187 -0.0558208
-2.6715e-05 0.0559296 0.055863
-1.09666e-05 0.0540306 0.150032
-2.71562e-05 0.143735 -0.14364
-2.50557e-05 0.150109 -0.0540119
-1.04504e-05 0.150043 0.0540216
-3.71912e-06 0.143643 0.14364
0.0576502 -0.14216 -0.142728
0.056536 -0.147269 -0.0489186
0.130757 -0.147135 0.0543768
0.12796 -0.139313 0.142115
0.126212 -0.0496611 -0.145791
0.132772 -0.0519329 -0.0552438
0.137799 -0.0531769 0.0559258
0.13332 -0.0526865 0.145585
0.133788 0.0556678 -0.145006
0.140182 0.0574936 -0.05438
0.139747 0.0549431 0.0544923
0.133326 0.0527962 0.14504
0.127863 0.140222 -0.139364
0.133309 0.145843 -0.0527308
0.133325 0.145154 0.0527774
0.127881 0.139374 0.139365
0.14362 -0.00666269 -0.0928588
0.152577 -0.00620272 0.0842471
VECTORS force float
-0.0564466 -0.0571894 -0.0577817
-0.0558963 -0.0568905 -0.0287888
-0.0313953 -0.0573622 0.0302138
-0.0304107 -0.0576912 0.0579009
-0.0317755 -0.0288233 -0.0574386
-0.0328289 -0.0286528 -0.0291944
-0.032261 -0.0291943 0.029362
-0.031127 -0.0294584 0.057428
-0.0311004 0.0296684 -0.0573958
-0.0321342 0.0294564 -0.0292598
-0.0321379 0.0293047 0.0292746
-0.0311073 0.0294694 0.0573959
-0.0303912 0.0577392 -0.0576975
-0.0311096 0.0574288 -0.0294609
-0.0311075 0.0574025 0.0294636
-0.0303881 0.0577 0.057699
-0.0310433 -0.0543833 -0.05686
-0.0388928 -0.0543919 -0.0261128
0.00362182 -0.055651 0.0283545
5.89245e-05 -0.0560105 0.0569491
0.000735168 -0.0296963 -0.0557256
0.000290198 -0.0292704 -0.0289426
-0.000183675 -0.0289624 0.0291011
-1.23201e-06 -0.0291821 0.0558537
0.000239619 0.0298459 -0.0557167
0.000220336 0.0296508 -0.0289932
1.67879e-05 0.0290805 0.0290158
-3.54559e-06 0.0292159 0.0557329
-4.89485e-05 0.0563069 -0.0560371
-4.51867e-05 0.0559684 -0.029194
-1.42451e-05 0.0557718 0.0292138
-4.45192e-06 0.0560433 0.0560381
0.0458981 -0.0552944 -0.0557236
0.0445173 -0.0516348 -0.0214649
0.0193042 -0.0679645 0.0275156
0.0304763 -0.0575805 0.0602199
0.00473165 -0.0179666 -0.0611923
0.0149073 -0.026267 -0.0355034
0.0236777 -0.0239268 0.0340823
0.0310937 -0.0294087 0.0582593
0.0320211 0.0297743 -0.0573717
0.0330755 0.0297428 -0.0292067
0.0322163 0.0296535 0.0292421
0.0310991 0.029507 0.0574267
0.0303125 0.0599555 -0.0576972
0.0310281 0.0595829 -0.0294159
0.0310938 0.0577287 0.0295226
0.0303867 0.0577294 0.0577202
0.0722742 -0.0214062 -0.00669461
0.0785584 -0.00946732 -0.00411534
SCALARS mass float 1
LOOKUP_TABLE default
1
1
1
1
1
1
1
1
1
1
1
1
1
1
1
1
1
1
1
1
1
1
1
1
1
1
1
1
1
1
1
1
1
1
1
1
1
1
1
1
1
1
1
1
1
1
1
1
1
1
