# vtk DataFile Version 3.0
Molecular Dynamics Particle Data
ASCII
DATASET POLYDATA
POINTS 50 float
0.489265 0.489256 0.489255
0.488752 0.488735 0.598728
0.488803 0.488735 0.701276
0.489324 0.489256 0.810744
0.488802 0.598728 0.488734
0.488212 0.598642 0.59864
0.488218 0.59864 0.701361
0.48881 0.598726 0.811266
0.488809 0.701274 0.488735
0.488219 0.701361 0.59864
0.48822 0.701361 0.70136
0.48881 0.701274 0.811265
0.489324 0.810744 0.489256
0.48881 0.811265 0.598726
0.48881 0.811265 0.701274
0.489324 0.810744 0.810744
0.598825 0.488773 0.488745
0.598827 0.48818 0.598677
0.599928 0.48818 0.701387
0.599996 0.488773 0.811233
0.59992 0.598682 0.488175
0.599919 0.598584 0.598557
0.599984 0.598558 0.701456
0.6 0.598651 0.811822
0.599995 0.701358 0.48818
0.599995 0.701456 0.598552
0.6 0.701451 0.70145
0.6 0.701351 0.81182
0.6 0.811228 0.488773
0.6 0.811821 0.59865
0.6 0.81182 0.70135
0.6 0.811227 0.811227
0.701609 0.489154 0.488868
0.701967 0.488622 0.598993
0.710852 0.488732 0.701727
0.710673 0.489257 0.810809
0.710788 0.599156 0.488676
0.711368 0.599076 0.598693
0.711715 0.598705 0.701437
0.711187 0.59873 0.811281
0.711188 0.701357 0.488732
0.711779 0.701444 0.598643
0.711778 0.701377 0.701366
0.711189 0.701275 0.811267
0.710675 0.81075 0.489256
0.711189 0.811272 0.598727
0.71119 0.811267 0.701274
0.710676 0.810744 0.810744
0.810847 0.499529 0.490628
0.811438 0.49945 0.608822
VERTICES 50 100
1 0
1 1
1 2
1 3
1 4
1 5
1 6
1 7
1 8
1 9
1 10
1 11
1 12
1 13
1 14
1 15
1 16
1 17
1 18
1 19
1 20
1 21
1 22
1 23
1 24
1 25
1 26
1 27
1 28
1 29
1 30
1 31
1 32
1 33
1 34
1 35
1 36
1 37
1 38
1 39
1 40
1 41
1 42
1 43
1 44
1 45
1 46
1 47
1 48
1 49
POINT_DATA 50
VECTORS velocity float
-0.0957601 -0.0959039 -0.0959378
-0.100138 -0.100438 -0.0202229
-0.0989686 -0.100443 0.0203033
-0.094437 -0.0959093 0.0959173
-0.0989819 -0.0202163 -0.100451
-0.104062 -0.0213805 -0.0214121
-0.103953 -0.0214111 0.0214298
-0.0988377 -0.0202544 0.100449
-0.0988486 0.0202676 -0.100446
-0.10393 0.0214291 -0.0214186
-0.10392 0.0214233 0.0214211
-0.0988354 0.0202575 0.100446
-0.0944286 0.095911 -0.0959096
-0.0988356 0.100448 -0.0202557
-0.098835 0.100446 0.0202571
-0.0944274 0.0959095 0.0959092
-0.0189329 -0.099928 -0.100325
-0.018929 -0.105089 -0.020873
-0.000948214 -0.105073 0.0218117
-4.88944e-05 -0.0999251 0.100016
-0.00105438 -0.0208067 -0.105141
-0.00106166 -0.0221011 -0.0224803
-0.000203654 -0.022468 0.0226417
-2.42805e-05 -0.0212408 0.105105
-6.00402e-05 0.0213661 -0.105083
-6.13201e-05 0.0226623 -0.0225366
-2.52964e-05 0.0225771 0.0225577
-6.25969e-06 0.0212548 0.105082
-8.28255e-06 0.0999422 -0.0999267
-7.13558e-06 0.105091 -0.0212486
-3.91369e-06 0.105083 0.0212511
-1.88468e-06 0.0999278 0.099927
0.0221289 -0.0974553 -0.0990609
0.0238878 -0.102147 -0.018814
0.0967221 -0.100515 0.0240125
0.0944428 -0.0959026 0.0968696
0.0958808 -0.0171906 -0.100885
0.100756 -0.0182383 -0.021073
0.103381 -0.0209119 0.0220996
0.0988225 -0.0202238 0.100653
0.0988905 0.0215131 -0.100469
0.103972 0.0226916 -0.0213924
0.10391 0.0216478 0.0214683
0.0988312 0.0202777 0.100468
0.094425 0.0960257 -0.0959124
0.0988311 0.100561 -0.0202529
0.0988326 0.100477 0.0202626
0.094427 0.0959143 0.0959115
0.0974376 -0.0036245 -0.0777752
0.102998 -0.00430728 0.0730326
VECTORS force float
-0.295851 -0.297599 -0.298114
-0.305844 -0.30966 -0.189986
-0.286466 -0.309793 0.191213
-0.27419 -0.297734 0.297841
-0.286553 -0.18994 -0.309885
-0.299122 -0.19755 -0.198006
-0.297735 -0.19799 0.198222
-0.28475 -0.190493 0.309847
-0.284884 0.190631 -0.309816
-0.29749 0.198221 -0.198095
-0.297364 0.198134 0.198124
-0.284733 0.19051 0.309813
-0.274076 0.297759 -0.297736
-0.284737 0.309834 -0.190505
-0.284731 0.30982 0.190508
-0.274067 0.297739 0.297738
-0.181767 -0.305716 -0.309212
-0.183115 -0.319528 -0.192955
-0.00534307 -0.319259 0.201754
-0.000179942 -0.305663 0.306615
-0.00667584 -0.192771 -0.31973
-0.00688923 -0.200847 -0.20394
-0.00118343 -0.203878 0.205053
-0.000134828 -0.196217 0.319534
-0.000164745 0.19751 -0.319339
-0.000191778 0.205617 -0.204318
-0.000125851 0.20464 0.204442
-3.8681e-05 0.196303 0.319346
-5.82273e-05 0.305853 -0.30568
-5.38936e-05 0.319474 -0.196258
-2.79796e-05 0.319362 0.196277
-9.27557e-06 0.305688 0.305681
0.185516 -0.310141 -0.303607
0.169469 -0.32316 -0.193625
0.291972 -0.311472 0.192867
0.274494 -0.297652 0.306418
0.28166 -0.194011 -0.310064
0.291878 -0.200448 -0.199057
0.295834 -0.197565 0.200156
0.284776 -0.190363 0.311426
0.286074 0.202283 -0.309832
0.298704 0.210151 -0.198002
0.297527 0.199932 0.198291
0.284729 0.190636 0.309965
0.274053 0.299361 -0.297762
0.28471 0.311419 -0.190468
0.284724 0.310171 0.190551
0.274066 0.297781 0.297758
0.309217 -0.00388275 -0.16083
0.329151 -0.00549435 0.147384
SCALARS mass float 1
LOOKUP_TABLE default
1
1
1
1
1
1
1
1
1
1
1
1
1
1
1
1
1
1
1
1
1
1
1
1
1
1
1
1
1
1
1
1
1
1
1
1
1
1
1
1
1
1
1
1
1
1
1
1
1
1
