# vtk DataFile Version 3.0
Molecular Dynamics Particle Data
ASCII
DATASET POLYDATA
POINTS 250 float
0.421969 0.421908 0.421901
0.418409 0.41834 0.561297
0.417452 0.417378 0.683531
0.417236 0.417158 0.8
0.417476 0.417378 0.916476
0.418595 0.418337 1.03871
0.422171 0.421905 1.1781
0.418595 0.561306 0.418335
0.414437 0.55969 0.559683
0.413342 0.559067 0.682802
0.413095 0.558891 0.8
0.413348 0.559066 0.917198
0.414456 0.559686 1.04032
0.418616 0.561301 1.18167
0.417668 0.683534 0.417374
0.413366 0.682804 0.55906
0.41221 0.682502 0.6825
0.411952 0.682412 0.8
0.412212 0.682502 0.917501
0.413369 0.682804 1.04094
0.41767 0.683532 1.18262
0.417455 0.8 0.417154
0.413121 0.8 0.558885
0.411955 0.8 0.68241
0.411686 0.8 0.8
0.411955 0.8 0.91759
0.413122 0.8 1.04111
0.417455 0.8 1.18284
0.41767 0.916468 0.417374
0.41337 0.917196 0.55906
0.412215 0.917501 0.6825
0.411955 0.91759 0.8
0.412215 0.917501 0.917501
0.41337 0.917196 1.04094
0.417671 0.916468 1.18262
0.418617 1.0387 0.418336
0.414462 1.04032 0.559684
0.41337 1.04094 0.682803
0.413122 1.04111 0.8
0.41337 1.04094 0.917196
0.414462 1.04032 1.04032
0.418617 1.0387 1.18167
0.422173 1.17809 0.421905
0.418617 1.18167 0.561301
0.41767 1.18262 0.683532
0.417455 1.18284 0.8
0.41767 1.18262 0.916468
0.418617 1.18167 1.0387
0.422173 1.17809 1.17809
0.562415 0.41841 0.418354
0.560903 0.414252 0.559699
0.560327 0.413148 0.682818
0.560183 0.412898 0.800026
0.560498 0.413148 0.917263
0.563921 0.414244 1.04036
0.565458 0.418401 1.18161
0.563875 0.559788 0.414233
0.562257 0.557982 0.557922
0.561668 0.557281 0.682019
0.561515 0.557086 0.800008
0.561706 0.557274 0.91799
0.562442 0.557936 1.04209
0.56406 0.559742 1.18576
0.563539 0.682846 0.413137
0.561881 0.682038 0.557223
0.561268 0.681701 0.681683
0.561106 0.6816 0.8
0.561271 0.681698 0.918318
0.561896 0.682025 1.04278
0.563555 0.682834 1.18686
0.563417 0.800007 0.412888
0.561744 0.800009 0.557027
0.561125 0.800009 0.681584
0.560959 0.80001 0.8
0.561125 0.800006 0.918416
0.561745 0.8 1.04297
0.563417 0.8 1.18711
0.563555 0.917166 0.413138
0.561899 0.917979 0.557224
0.561288 0.918317 0.681684
0.561126 0.918417 0.8
0.561288 0.918316 0.918316
0.5619 0.917979 1.04278
0.563556 0.917165 1.18686
0.564064 1.04026 0.414243
0.56248 1.04207 0.557928
0.5619 1.04278 0.682022
0.561745 1.04297 0.8
0.5619 1.04278 0.917979
0.56248 1.04207 1.04207
0.564064 1.04026 1.18576
0.565471 1.1816 0.418401
0.564064 1.18576 0.559741
0.563556 1.18686 0.682834
0.563418 1.18711 0.8
0.563556 1.18686 0.917165
0.564064 1.18576 1.04026
0.565471 1.1816 1.1816
0.6888 0.417724 0.417483
0.688435 0.41345 0.559157
0.68828 0.412307 0.682585
0.688291 0.412047 0.800108
0.688269 0.412306 0.917747
0.699852 0.413464 1.04102
0.699973 0.417727 1.18232
0.699526 0.559518 0.413425
0.699437 0.557674 0.557459
0.699416 0.55696 0.681815
0.699421 0.556759 0.800022
0.699497 0.556937 0.918228
0.699919 0.557506 1.04257
0.699989 0.559349 1.18655
0.699984 0.68271 0.412315
0.699977 0.681886 0.556749
0.699975 0.681543 0.681465
0.699976 0.681439 0.8
0.69998 0.681531 0.918536
0.699993 0.681826 1.04325
0.7 0.682652 1.18768
0.699994 0.800022 0.412057
0.699987 0.800027 0.556548
0.699986 0.800029 0.681363
0.699988 0.800028 0.8
0.699995 0.800024 0.918637
0.7 0.800009 1.04345
0.7 0.8 1.18794
0.7 0.917356 0.412319
0.7 0.918194 0.556752
0.7 0.918543 0.681467
0.7 0.918646 0.8
0.7 0.91854 0.918533
0.7 0.918186 1.04325
0.7 0.91735 1.18768
0.7 1.04065 0.413463
0.7 1.04252 0.557479
0.7 1.04325 0.681815
0.7 1.04345 0.8
0.7 1.04325 0.918185
0.7 1.04252 1.04252
0.7 1.04065 1.18654
0.7 1.18227 0.417727
0.7 1.18654 0.559346
0.7 1.18768 0.682651
0.7 1.18794 0.8
0.7 1.18768 0.917349
0.7 1.18654 1.04065
0.7 1.18227 1.18227
0.812508 0.418442 0.41754
0.813181 0.414229 0.559224
0.81346 0.413126 0.682735
0.813741 0.412876 0.800413
0.812326 0.413104 0.918348
0.836178 0.414256 1.04103
0.834505 0.418405 1.18184
0.835045 0.560132 0.414116
0.836429 0.558383 0.557872
0.836971 0.557703 0.682027
0.837138 0.557509 0.800058
0.837115 0.557668 0.918087
0.837351 0.55799 1.04221
0.83592 0.559749 1.18581
0.836467 0.683067 0.413122
0.838118 0.682292 0.557213
0.838728 0.681967 0.681683
0.838893 0.681867 0.800006
0.838732 0.681933 0.918332
0.838093 0.682065 1.04279
0.836442 0.682839 1.18687
0.836569 0.800116 0.412883
0.838239 0.800136 0.557024
0.838858 0.800142 0.681582
0.839023 0.800141 0.8
0.838861 0.80012 0.918422
0.838251 0.800025 1.04298
0.836582 0.800003 1.18712
0.836441 0.917211 0.413137
0.838095 0.918034 0.557223
0.838705 0.918374 0.681683
0.838868 0.918474 0.8
0.838706 0.918363 0.918318
0.8381 0.917993 1.04278
0.836444 0.917166 1.18686
0.835934 1.04027 0.414243
0.837518 1.04208 0.557928
0.838099 1.04279 0.682021
0.838253 1.04298 0.8
0.8381 1.04279 0.917979
0.83752 1.04208 1.04207
0.835935 1.04026 1.18576
0.834529 1.1816 0.418401
0.835935 1.18576 0.559741
0.836445 1.18686 0.682834
0.836582 1.18711 0.8
0.836445 1.18686 0.917165
0.835935 1.18576 1.04026
0.834529 1.1816 1.1816
0.93995 0.420369 0.418693
0.941788 0.416678 0.56021
0.942588 0.415676 0.683845
0.943414 0.415512 0.801636
0.939723 0.415965 0.920147
0.981594 0.417228 1.03893
0.977839 0.421926 1.17939
0.976833 0.563469 0.417636
0.980139 0.562199 0.55946
0.981123 0.561615 0.682786
0.981587 0.561277 0.79999
0.982092 0.560975 0.917254
0.984447 0.560334 1.04123
0.981371 0.561329 1.18199
0.982684 0.684653 0.417352
0.987051 0.684108 0.55903
0.988218 0.683833 0.682497
0.988477 0.683709 0.800024
0.988174 0.683672 0.917554
0.986662 0.683024 1.04098
0.982327 0.683555 1.18265
0.982517 0.800786 0.417131
0.986845 0.800912 0.558866
0.98801 0.800929 0.682404
0.988278 0.800919 0.800016
0.988014 0.800823 0.917619
0.986874 0.800132 1.04115
0.982544 0.800012 1.18285
0.982331 0.916834 0.417368
0.986632 0.917626 0.559054
0.987784 0.91794 0.682497
0.988047 0.918026 0.8
0.987784 0.91788 0.917511
0.986631 0.917264 1.04095
0.98233 0.916475 1.18263
0.981381 1.03877 0.418335
0.985537 1.0404 0.559683
0.986631 1.04102 0.682802
0.986877 1.0412 0.8
0.986631 1.04101 0.917199
0.985537 1.04033 1.04032
0.981382 1.0387 1.18167
0.977826 1.1781 0.421905
0.981382 1.18167 0.561301
0.98233 1.18263 0.683532
0.982545 1.18285 0.8
0.98233 1.18263 0.916468
0.981382 1.18167 1.0387
0.977826 1.17809 1.17809
1.0803 0.495904 0.424128
1.08434 0.495019 0.566044
1.08544 0.494817 0.6994
1.08555 0.494819 0.832666
1.08697 0.495977 0.972393
VERTICES 250 500
1 0
1 1
1 2
1 3
1 4
1 5
1 6
1 7
1 8
1 9
1 10
1 11
1 12
1 13
1 14
1 15
1 16
1 17
1 18
1 19
1 20
1 21
1 22
1 23
1 24
1 25
1 26
1 27
1 28
1 29
1 30
1 31
1 32
1 33
1 34
1 35
1 36
1 37
1 38
1 39
1 40
1 41
1 42
1 43
1 44
1 45
1 46
1 47
1 48
1 49
1 50
1 51
1 52
1 53
1 54
1 55
1 56
1 57
1 58
1 59
1 60
1 61
1 62
1 63
1 64
1 65
1 66
1 67
1 68
1 69
1 70
1 71
1 72
1 73
1 74
1 75
1 76
1 77
1 78
1 79
1 80
1 81
1 82
1 83
1 84
1 85
1 86
1 87
1 88
1 89
1 90
1 91
1 92
1 93
1 94
1 95
1 96
1 97
1 98
1 99
1 100
1 101
1 102
1 103
1 104
1 105
1 106
1 107
1 108
1 109
1 110
1 111
1 112
1 113
1 114
1 115
1 116
1 117
1 118
1 119
1 120
1 121
1 122
1 123
1 124
1 125
1 126
1 127
1 128
1 129
1 130
1 131
1 132
1 133
1 134
1 135
1 136
1 137
1 138
1 139
1 140
1 141
1 142
1 143
1 144
1 145
1 146
1 147
1 148
1 149
1 150
1 151
1 152
1 153
1 154
1 155
1 156
1 157
1 158
1 159
1 160
1 161
1 162
1 163
1 164
1 165
1 166
1 167
1 168
1 169
1 170
1 171
1 172
1 173
1 174
1 175
1 176
1 177
1 178
1 179
1 180
1 181
1 182
1 183
1 184
1 185
1 186
1 187
1 188
1 189
1 190
1 191
1 192
1 193
1 194
1 195
1 196
1 197
1 198
1 199
1 200
1 201
1 202
1 203
1 204
1 205
1 206
1 207
1 208
1 209
1 210
1 211
1 212
1 213
1 214
1 215
1 216
1 217
1 218
1 219
1 220
1 221
1 222
1 223
1 224
1 225
1 226
1 227
1 228
1 229
1 230
1 231
1 232
1 233
1 234
1 235
1 236
1 237
1 238
1 239
1 240
1 241
1 242
1 243
1 244
1 245
1 246
1 247
1 248
1 249
POINT_DATA 250
VECTORS velocity float
-0.154099 -0.154543 -0.154586
-0.160591 -0.161064 -0.109206
-0.163224 -0.163731 -0.0605623
-0.16394 -0.164469 1.44387e-05
-0.163089 -0.163734 0.0606072
-0.159355 -0.161092 0.109244
-0.152749 -0.154571 0.154581
-0.159357 -0.109152 -0.161101
-0.167023 -0.112665 -0.112706
-0.169984 -0.114477 -0.0623441
-0.17078 -0.115078 1.15963e-05
-0.169955 -0.114483 0.0623487
-0.166916 -0.112695 0.112711
-0.159239 -0.109185 0.161101
-0.161827 -0.060541 -0.163766
-0.169854 -0.0623324 -0.114516
-0.172994 -0.0632518 -0.0632656
-0.173827 -0.0635671 -4.70496e-06
-0.172989 -0.0632543 0.0632727
-0.169841 -0.0623408 0.114516
-0.161813 -0.0605492 0.163764
-0.162519 -4.37747e-06 -0.164503
-0.170637 1.19007e-05 -0.115117
-0.173811 1.11025e-06 -0.06358
-0.174681 3.56475e-06 -2.79497e-06
-0.173811 -9.96609e-07 0.0635812
-0.170636 8.37577e-06 0.115115
-0.162518 -9.54128e-06 0.164502
-0.161813 0.0605552 -0.163764
-0.169838 0.0623401 -0.114515
-0.172976 0.0632705 -0.063265
-0.17381 0.0635812 -5.74842e-06
-0.172975 0.0632705 0.0632702
-0.169838 0.0623395 0.114514
-0.161812 0.0605551 0.163763
-0.159235 0.109185 -0.161095
-0.166887 0.112702 -0.112702
-0.169838 0.114515 -0.0623427
-0.170635 0.115115 5.2691e-06
-0.169837 0.114514 0.0623398
-0.166887 0.112703 0.112703
-0.159235 0.109185 0.161098
-0.152739 0.154573 -0.154571
-0.159235 0.161098 -0.109186
-0.161813 0.163763 -0.0605495
-0.162517 0.164502 -1.04525e-05
-0.161813 0.163763 0.0605553
-0.159235 0.161098 0.109185
-0.152739 0.154573 0.154573
-0.102329 -0.160711 -0.161003
-0.105418 -0.168345 -0.112619
-0.107001 -0.171365 -0.0622515
-0.107468 -0.172185 0.000126373
-0.106608 -0.171364 0.0626683
-0.0907717 -0.168399 0.112902
-0.0876008 -0.16077 0.160835
-0.0911173 -0.112193 -0.168449
-0.094422 -0.116036 -0.116312
-0.095968 -0.118027 -0.0641354
-0.0964373 -0.118685 3.16032e-05
-0.0958386 -0.118063 0.0641813
-0.0937178 -0.116252 0.116345
-0.0904249 -0.112417 0.168416
-0.0917815 -0.0621206 -0.171434
-0.0951477 -0.0640473 -0.118301
-0.0967506 -0.0650467 -0.0651365
-0.0972394 -0.0653887 1.01172e-05
-0.0967417 -0.0650628 0.0651407
-0.0951108 -0.0641171 0.118305
-0.0917424 -0.0621854 0.171431
-0.0921614 3.40724e-05 -0.17225
-0.0955748 3.77401e-05 -0.118959
-0.0971952 3.73225e-05 -0.0654768
-0.0976982 3.80164e-05 7.31613e-06
-0.0971881 3.63377e-05 0.0654755
-0.0955701 1.91245e-05 0.118959
-0.0921621 4.1251e-06 0.17225
-0.0917421 0.0621902 -0.171428
-0.0950995 0.0641388 -0.118297
-0.096699 0.0651425 -0.0651342
-0.0971891 0.0654853 2.77196e-06
-0.096698 0.065137 0.065133
-0.0950983 0.0641294 0.118298
-0.091741 0.0621848 0.171427
-0.0904042 0.112423 -0.168404
-0.0935864 0.116288 -0.116288
-0.0950986 0.118299 -0.0641302
-0.0955692 0.118959 5.9609e-06
-0.0950984 0.118298 0.0641287
-0.0935861 0.116287 0.116288
-0.0904039 0.112423 0.168403
-0.0875537 0.160774 -0.160771
-0.0904041 0.168403 -0.112421
-0.0917413 0.171427 -0.0621877
-0.0921618 0.17225 1.50351e-06
-0.0917411 0.171427 0.0621845
-0.0904041 0.168403 0.112423
-0.0875538 0.160774 0.160774
-0.0368054 -0.162321 -0.163286
-0.037533 -0.170239 -0.114061
-0.0379416 -0.173361 -0.0628359
-0.0378536 -0.174208 0.000479433
-0.0402149 -0.173368 0.0642478
0.000781178 -0.170204 0.114565
-3.09756e-05 -0.162338 0.162583
-0.00116798 -0.112836 -0.170339
-0.00144563 -0.116749 -0.117397
-0.00150085 -0.118776 -0.0646261
-0.00150117 -0.119445 3.35874e-05
-0.00132486 -0.118821 0.0647799
-0.000201425 -0.117268 0.117495
-2.67304e-05 -0.113349 0.170262
3.82612e-05 -0.0624009 -0.173354
2.05482e-05 -0.0643569 -0.119415
9.84869e-06 -0.0653705 -0.065682
1.50607e-05 -0.065717 2.49152e-05
2.2234e-05 -0.0654101 0.0656837
-1.74523e-05 -0.0646029 0.119421
-1.44388e-05 -0.062652 0.173346
-3.33719e-05 0.000100719 -0.174196
-3.53335e-05 0.000115251 -0.120087
-3.61823e-05 0.000124689 -0.0660262
-3.71328e-05 0.000122277 4.12661e-06
-3.17679e-05 0.000104811 0.0660282
-1.49036e-05 3.23352e-05 0.120089
-7.01131e-06 8.73927e-06 0.17419
-1.47974e-05 0.0626952 -0.173341
-1.42445e-05 0.0646974 -0.119406
-1.70808e-05 0.065731 -0.0656758
-1.69767e-05 0.0660797 3.45353e-06
-1.56528e-05 0.0657189 0.0656762
-5.09065e-06 0.064654 0.119406
-2.27182e-06 0.0626544 0.173338
-4.17738e-06 0.113363 -0.170214
-4.93093e-06 0.117349 -0.11734
-3.60985e-06 0.119416 -0.0646428
-4.97088e-06 0.120094 3.57222e-08
-2.24146e-06 0.119412 0.0646451
-2.18729e-06 0.11734 0.11734
-1.48457e-06 0.113355 0.170213
8.37512e-07 0.162343 -0.162343
-1.45832e-06 0.170214 -0.113359
-1.568e-06 0.173339 -0.0626522
-8.84155e-07 0.174189 -3.56211e-06
-1.34077e-06 0.173339 0.0626543
-1.10237e-06 0.170213 0.113355
1.18059e-06 0.162343 0.162343
0.0394591 -0.160255 -0.163203
0.0409462 -0.168106 -0.113821
0.0417582 -0.171111 -0.0622168
0.0429243 -0.171928 0.0015374
0.0344745 -0.171204 0.0660298
0.0936303 -0.168352 0.11325
0.0875047 -0.160753 0.161591
0.0882172 -0.112042 -0.168728
0.0908348 -0.115781 -0.11641
0.0922246 -0.11775 -0.0640846
0.0927322 -0.118398 0.000157881
0.0925893 -0.117706 0.0643576
0.0931438 -0.116213 0.116629
0.0903649 -0.112401 0.168573
0.0919641 -0.061542 -0.171461
0.0953321 -0.0633884 -0.118323
0.0969326 -0.0643497 -0.0651326
0.0974318 -0.0646849 2.3478e-05
0.0969215 -0.064418 0.0651737
0.0950949 -0.0640205 0.11834
0.0917361 -0.0621727 0.171453
0.0921146 0.00042812 -0.172265
0.0955109 0.000499331 -0.118973
0.0971285 0.000520046 -0.0654832
0.0976332 0.000522033 2.65795e-05
0.0971402 0.000455667 0.0654924
0.0955589 6.08036e-05 0.118979
0.0921608 2.48492e-05 0.172258
0.0917214 0.0624185 -0.171433
0.0950739 0.0644004 -0.118302
0.0966653 0.0654154 -0.0651372
0.097161 0.0657538 1.03757e-05
0.0966708 0.0653709 0.0651422
0.0950944 0.064191 0.118307
0.0917415 0.0621934 0.171429
0.090397 0.112484 -0.168405
0.0935782 0.116359 -0.11629
0.0950919 0.118377 -0.0641313
0.0955598 0.119034 8.11666e-06
0.0950932 0.118359 0.0641318
0.0935836 0.116305 0.116289
0.0904029 0.112423 0.168404
0.0875522 0.160778 -0.160771
0.0904025 0.168409 -0.112421
0.0917416 0.171433 -0.0621877
0.0921608 0.172255 2.04675e-06
0.0917417 0.171431 0.062185
0.0904031 0.168405 0.112423
0.0875528 0.160774 0.160774
0.111129 -0.157099 -0.160252
0.115008 -0.163847 -0.110613
0.117287 -0.166586 -0.0587875
0.120159 -0.167165 0.00519228
0.105706 -0.165203 0.0700474
0.162804 -0.166398 0.103624
0.152735 -0.154497 0.157493
0.138928 -0.101149 -0.163272
0.144016 -0.103928 -0.113445
0.146714 -0.105817 -0.0632357
0.148981 -0.107384 -0.00165741
0.152304 -0.109418 0.0615287
0.161206 -0.109841 0.116223
0.159213 -0.109132 0.162105
0.163383 -0.0583807 -0.163744
0.171722 -0.0598034 -0.11456
0.17492 -0.0606589 -0.0632762
0.175736 -0.0611097 6.14115e-05
0.17468 -0.0611281 0.0633673
0.169997 -0.0616918 0.114556
0.161805 -0.0604916 0.163812
0.162353 0.00220148 -0.164589
0.170444 0.00254986 -0.115185
0.173617 0.00260938 -0.0635891
0.174481 0.00256013 3.17869e-05
0.173636 0.00236783 0.0636874
0.170616 0.000329819 0.115234
0.162515 3.53972e-05 0.164529
0.161822 0.0623243 -0.163794
0.16985 0.0643709 -0.114547
0.172979 0.0653405 -0.0632808
0.173825 0.0656341 2.40182e-05
0.172977 0.065094 0.0633195
0.169841 0.0626195 0.114567
0.161814 0.0605868 0.163771
0.159233 0.10966 -0.161101
0.166883 0.113253 -0.112709
0.169837 0.115085 -0.0623451
0.170629 0.115681 1.26107e-05
0.169837 0.114998 0.0623529
0.166885 0.112798 0.112715
0.159235 0.109195 0.161101
0.152739 0.154599 -0.154572
0.159234 0.161127 -0.109186
0.161813 0.163792 -0.0605497
0.162516 0.164532 -1.02344e-05
0.161813 0.163785 0.0605561
0.159235 0.161105 0.109187
0.152739 0.154574 0.154573
0.166088 -0.015671 -0.150065
0.174473 -0.0180561 -0.0871044
0.177633 -0.0187528 -0.00114401
0.177178 -0.018412 0.0846441
0.181473 -0.0117512 0.141705
VECTORS force float
-0.0396795 -0.0420737 -0.0422579
-0.0394844 -0.0419002 -0.0761158
-0.041011 -0.0435433 -0.0542414
-0.0415058 -0.0441109 0.000105253
-0.0406211 -0.0435554 0.0543907
-0.0343107 -0.0420514 0.0762952
-0.0339247 -0.0422306 0.0422658
-0.034353 -0.0759227 -0.0420852
-0.0346013 -0.0756561 -0.0758044
-0.0361708 -0.076226 -0.053378
-0.0366497 -0.0764725 1.10456e-05
-0.0360987 -0.0762488 0.0534208
-0.034275 -0.0757698 0.0758152
-0.0339932 -0.0760493 0.0420756
-0.0353848 -0.0541586 -0.0437231
-0.0357831 -0.0533281 -0.0763735
-0.0374521 -0.0532275 -0.0532734
-0.0379202 -0.053215 9.03452e-06
-0.0374442 -0.0532373 0.053272
-0.0357588 -0.0533693 0.0763732
-0.0353567 -0.0541975 0.0437226
-0.0357988 1.66153e-05 -0.04429
-0.0362338 1.0171e-05 -0.0766193
-0.0378877 3.28138e-05 -0.0532597
-0.0384108 2.7259e-05 4.50763e-06
-0.0378877 2.73711e-05 0.0532497
-0.0362313 8.94246e-07 0.0766212
-0.0357984 1.81978e-06 0.0442911
-0.0353563 0.0541947 -0.0437198
-0.0357529 0.0533943 -0.0763707
-0.037417 0.0532659 -0.0532731
-0.0378887 0.0532495 6.82268e-06
-0.0374164 0.0532651 0.0532654
-0.0357523 0.0533942 0.0763705
-0.0353549 0.0541914 0.0437205
-0.0339834 0.0760568 -0.0420653
-0.0342039 0.0757845 -0.0757929
-0.0357523 0.0763706 -0.0533773
-0.0362309 0.0766208 -7.48357e-06
-0.0357519 0.0763708 0.0533949
-0.0342038 0.0757851 0.0757847
-0.0339833 0.0760579 0.042067
-0.0338947 0.0422319 -0.0422321
-0.0339833 0.0420672 -0.0760521
-0.0353555 0.0437208 -0.0541972
-0.0357975 0.0442907 -1.39891e-06
-0.0353554 0.0437205 0.0541923
-0.0339834 0.042067 0.0760575
-0.0338945 0.0422318 0.0422318
-0.0514769 -0.0409554 -0.0417685
-0.050878 -0.0407939 -0.0755543
-0.0511119 -0.0425599 -0.0531212
-0.0511981 -0.0431365 0.000336328
-0.0533807 -0.0425475 0.05423
-0.0208766 -0.040957 0.0762623
-0.0219945 -0.041148 0.0413612
-0.0226557 -0.0746705 -0.0410756
-0.0228743 -0.0741469 -0.0747341
-0.0231975 -0.0746955 -0.0521109
-0.0232955 -0.0749372 -5.01711e-05
-0.0231534 -0.0747395 0.0523234
-0.0221958 -0.0746357 0.0748044
-0.0221028 -0.0751708 0.0410067
-0.0222451 -0.0528742 -0.0427617
-0.0223796 -0.0519075 -0.0752767
-0.0227182 -0.0517697 -0.0520552
-0.0227942 -0.0517323 6.82714e-06
-0.0227326 -0.0518165 0.0520754
-0.0224441 -0.0521564 0.0752699
-0.0223253 -0.053128 0.0427594
-0.0223987 -1.31504e-05 -0.043334
-0.0225586 4.12947e-06 -0.0755125
-0.0228927 4.31093e-08 -0.052046
-0.0229778 -1.20513e-05 5.04939e-06
-0.0228707 2.00738e-05 0.0520497
-0.0225355 3.88376e-05 0.0755095
-0.0223936 -6.77819e-06 0.0433312
-0.0223308 0.0532223 -0.0427518
-0.022461 0.0522611 -0.0752665
-0.0227969 0.0521554 -0.0520596
-0.0228735 0.0521362 -3.9442e-06
-0.0227957 0.0521296 0.052073
-0.0224583 0.0521761 0.0752605
-0.0223278 0.053152 0.0427529
-0.0220862 0.0751742 -0.0409753
-0.0221601 0.0747001 -0.0746918
-0.0224583 0.0752642 -0.0521832
-0.0225373 0.0755133 5.42954e-06
-0.0224579 0.0752613 0.0521744
-0.0221591 0.0746976 0.0746976
-0.0220855 0.0751705 0.0409736
-0.0219691 0.041154 -0.0411546
-0.0220856 0.0409741 -0.0751746
-0.0223279 0.0427531 -0.0531362
-0.0223938 0.0433312 -1.07923e-05
-0.022328 0.0427527 0.0531503
-0.0220852 0.0409736 0.0751727
-0.0219692 0.0411541 0.0411534
-0.0180714 -0.0406215 -0.0425841
-0.0176037 -0.0405937 -0.075395
-0.0174509 -0.0423679 -0.0524316
-0.0166906 -0.0429298 0.000959408
-0.0304424 -0.0423908 0.0559083
0.00690832 -0.0409149 0.0742879
3.28959e-05 -0.0410805 0.0417407
0.000411953 -0.0748944 -0.0410582
9.92842e-05 -0.0743075 -0.0742581
7.54343e-05 -0.0748644 -0.0517602
4.67583e-05 -0.0751043 3.63228e-06
-4.9063e-05 -0.0747366 0.0519022
7.02267e-05 -0.0742966 0.0744166
-5.17918e-06 -0.07479 0.0410234
0.000344353 -0.0523371 -0.0427365
0.000378439 -0.0513305 -0.074842
0.000380388 -0.051171 -0.0517079
0.000380238 -0.0511286 1.57386e-05
0.00032312 -0.0511946 0.0517182
3.75325e-05 -0.0517307 0.0748257
-5.86135e-06 -0.052808 0.0427358
-2.58332e-05 0.000235525 -0.0433193
-1.12636e-05 0.000260688 -0.0750829
-1.00858e-05 0.000274973 -0.0516744
-2.12778e-05 0.00028416 3.96133e-06
-2.06623e-05 0.000237796 0.0516943
-9.80254e-06 -5.15589e-05 0.0750741
-5.48696e-06 1.42082e-05 0.0433145
-2.07379e-05 0.0529402 -0.0427309
-1.95947e-05 0.0519782 -0.0748313
-2.36878e-05 0.051855 -0.0517076
-2.36921e-05 0.0518211 2.43208e-06
-2.76833e-05 0.0518345 0.0517201
-8.64622e-06 0.0519077 0.0748243
-6.03723e-07 0.0528124 0.0427301
-1.01905e-05 0.0748424 -0.0409387
-1.27483e-05 0.0743184 -0.0742754
-1.19795e-05 0.0748781 -0.0518355
-1.28241e-05 0.075121 3.97296e-06
-8.81194e-06 0.0748657 0.0518379
-3.72623e-06 0.0742788 0.0742734
-7.78578e-07 0.0748013 0.0409397
-1.16868e-06 0.0411027 -0.0411012
-1.41784e-06 0.0409426 -0.0748024
-8.56624e-07 0.0427326 -0.052811
-1.71103e-06 0.0433136 -6.85714e-07
-1.68729e-08 0.0427317 0.0528124
-9.45112e-07 0.0409395 0.0748012
-1.30581e-07 0.0411012 0.0411012
0.0197669 -0.0382734 -0.0426172
0.0197719 -0.0385116 -0.0748268
0.0200265 -0.0402024 -0.0513916
0.02273 -0.0407516 0.00218965
0.0037466 -0.0402045 0.0591538
0.0318452 -0.0409539 0.0679815
0.0218893 -0.0411192 0.04218
0.0179786 -0.0777696 -0.0411762
0.0173771 -0.077265 -0.0746454
0.0174813 -0.0779351 -0.0521028
0.0178071 -0.0781698 8.09217e-05
0.0184845 -0.0774561 0.0522378
0.0211646 -0.0749264 0.0748051
0.0220273 -0.0751675 0.0411784
0.022939 -0.0528541 -0.0427447
0.0231223 -0.0518225 -0.0752507
0.0234641 -0.0516529 -0.0520736
0.0235747 -0.0516194 3.27883e-05
0.0234798 -0.0516136 0.0520458
0.0224476 -0.0521665 0.0752622
0.0223187 -0.0531018 0.0427676
0.0222859 0.000470264 -0.0433557
0.0224097 0.000533831 -0.07553
0.0227443 0.000556088 -0.0520531
0.0228314 0.000580167 4.29472e-05
0.0227708 0.000557998 0.0520491
0.0225256 5.47137e-05 0.075541
0.0223905 -1.27438e-05 0.043341
0.0222794 0.0536428 -0.0427669
0.0224026 0.0527214 -0.0752819
0.0227287 0.0526157 -0.0520588
0.0228138 0.0525921 1.47657e-05
0.0227392 0.0525608 0.052085
0.0224479 0.0522128 0.0752844
0.0223258 0.0531769 0.042757
0.0220567 0.07543 -0.0409806
0.0221274 0.07498 -0.0746984
0.0224256 0.0755673 -0.052182
0.022502 0.0758124 1.20921e-05
0.0224317 0.0755105 0.0521822
0.0221499 0.0747672 0.074706
0.0220821 0.0751746 0.0409764
0.0219644 0.0411734 -0.0411555
0.0220788 0.0409986 -0.0751751
0.0223234 0.042777 -0.0531362
0.0223884 0.0433558 -9.66405e-06
0.0223244 0.0427705 0.0531506
0.0220821 0.0409816 0.0751748
0.0219679 0.0411546 0.0411537
0.0688853 -0.0366125 -0.0404514
0.068679 -0.0364086 -0.071456
0.0692128 -0.0379052 -0.0501177
0.0733994 -0.0386114 0.00781002
0.0519178 -0.0353353 0.0563694
0.0453059 -0.0526232 0.059511
0.0337222 -0.0421104 0.0406099
-0.046087 -0.0423382 -0.0481613
-0.0482694 -0.0424802 -0.0795923
-0.0438931 -0.0456123 -0.0636091
-0.0330366 -0.0517097 -0.01217
-0.0156344 -0.0618889 0.0499036
0.00754761 -0.0648027 0.0888567
0.0340096 -0.0760946 0.0436887
0.0396179 -0.0498584 -0.043464
0.04074 -0.0489082 -0.0762793
0.0425426 -0.048813 -0.0532652
0.0428154 -0.049378 0.000180624
0.0415852 -0.0511291 0.0532777
0.0362175 -0.0511466 0.0761236
0.0353422 -0.0541304 0.043685
0.0352391 -0.000862891 -0.0444381
0.0355807 -0.000831363 -0.0766709
0.0372248 -0.000774198 -0.0531671
0.0377327 -0.000916245 -4.9057e-05
0.0372899 -0.000627782 0.0533586
0.0361757 -3.44752e-05 0.0767417
0.0357946 6.72835e-05 0.0443539
0.0354038 0.0568602 -0.0438007
0.0358139 0.0563034 -0.0764461
0.0374635 0.0561832 -0.0532948
0.0379583 0.0561431 9.45425e-05
0.037454 0.0560908 0.0533546
0.0357629 0.0536012 0.0764952
0.0353573 0.0542005 0.043751
0.0339663 0.0781605 -0.0420866
0.0341818 0.0781587 -0.0758202
0.0357365 0.0787687 -0.0533806
0.0362043 0.0790099 2.57861e-05
0.0357384 0.0784592 0.0534371
0.0341991 0.0761388 0.0758471
0.0339825 0.0761027 0.0420772
0.0338919 0.0423908 -0.0422334
0.0339785 0.0422368 -0.0760548
0.0353523 0.0438996 -0.0541981
0.0357903 0.0444663 7.33967e-08
0.0353532 0.0438658 0.0541998
0.0339821 0.0421021 0.0760641
0.0338958 0.0422363 0.042233
0.102245 -0.0523985 -0.0339161
0.10543 -0.0538099 -0.0215746
0.105636 -0.0532726 0.00604517
0.0973375 -0.0489405 0.0277457
0.0964554 -0.0286048 0.0314568
SCALARS mass float 1
LOOKUP_TABLE default
1
1
1
1
1
1
1
1
1
1
1
1
1
1
1
1
1
1
1
1
1
1
1
1
1
1
1
1
1
1
1
1
1
1
1
1
1
1
1
1
1
1
1
1
1
1
1
1
1
1
1
1
1
1
1
1
1
1
1
1
1
1
1
1
1
1
1
1
1
1
1
1
1
1
1
1
1
1
1
1
1
1
1
1
1
1
1
1
1
1
1
1
1
1
1
1
1
1
1
1
1
1
1
1
1
1
1
1
1
1
1
1
1
1
1
1
1
1
1
1
1
1
1
1
1
1
1
1
1
1
1
1
1
1
1
1
1
1
1
1
1
1
1
1
1
1
1
1
1
1
1
1
1
1
1
1
1
1
1
1
1
1
1
1
1
1
1
1
1
1
1
1
1
1
1
1
1
1
1
1
1
1
1
1
1
1
1
1
1
1
1
1
1
1
1
1
1
1
1
1
1
1
1
1
1
1
1
1
1
1
1
1
1
1
1
1
1
1
1
1
1
1
1
1
1
1
1
1
1
1
1
1
1
1
1
1
1
1
1
1
1
1
1
1
1
1
1
1
1
1
