# vtk DataFile Version 3.0
Molecular Dynamics Particle Data
ASCII
DATASET POLYDATA
POINTS 250 float
0.451799 0.451788 0.451787
0.449532 0.44952 0.581208
0.44906 0.449046 0.694028
0.448971 0.448956 0.8
0.449066 0.449046 0.905972
0.449565 0.449519 1.01879
0.451834 0.451788 1.14821
0.449565 0.58121 0.449519
0.446928 0.580293 0.580292
0.446381 0.580008 0.69367
0.446277 0.579941 0.8
0.446383 0.580008 0.906331
0.446932 0.580292 1.01971
0.44957 0.581209 1.15048
0.449099 0.694029 0.449045
0.446387 0.69367 0.580006
0.445812 0.693546 0.693546
0.445704 0.693515 0.8
0.445813 0.693546 0.906454
0.446388 0.69367 1.01999
0.4491 0.694029 1.15095
0.449011 0.8 0.448956
0.446283 0.8 0.57994
0.445705 0.8 0.693515
0.445592 0.8 0.8
0.445705 0.8 0.906485
0.446284 0.8 1.02006
0.449011 0.8 1.15104
0.4491 0.90597 0.449046
0.446388 0.90633 0.580006
0.445814 0.906454 0.693546
0.445705 0.906485 0.8
0.445814 0.906454 0.906454
0.446388 0.90633 1.01999
0.4491 0.90597 1.15095
0.44957 1.01879 0.449519
0.446934 1.01971 0.580292
0.446388 1.01999 0.69367
0.446284 1.02006 0.8
0.446388 1.01999 0.90633
0.446934 1.01971 1.01971
0.44957 1.01879 1.15048
0.451835 1.14821 0.451788
0.44957 1.15048 0.581209
0.4491 1.15095 0.694029
0.449011 1.15104 0.8
0.4491 1.15095 0.90597
0.44957 1.15048 1.01879
0.451835 1.14821 1.14821
0.581428 0.449538 0.449524
0.580543 0.4469 0.580295
0.580271 0.446352 0.693672
0.580214 0.446248 0.800007
0.580339 0.446352 0.906348
0.581332 0.446899 1.01972
0.582223 0.449537 1.15047
0.581326 0.580319 0.446895
0.580366 0.579283 0.579266
0.580074 0.578958 0.693268
0.58001 0.578881 0.8
0.580088 0.578956 0.906735
0.580429 0.579271 1.02074
0.58139 0.580307 1.1531
0.581133 0.693681 0.44635
0.580147 0.693273 0.578941
0.579843 0.693132 0.693127
0.579774 0.693097 0.8
0.579845 0.693131 0.906873
0.580154 0.69327 1.02106
0.58114 0.693677 1.15365
0.581082 0.8 0.446246
0.580089 0.8 0.578865
0.579782 0.8 0.693092
0.579712 0.8 0.8
0.579782 0.8 0.906909
0.58009 0.8 1.02114
0.581082 0.8 1.15375
0.58114 0.906323 0.44635
0.580155 0.906731 0.578941
0.579851 0.906873 0.693127
0.579782 0.906909 0.8
0.579851 0.906873 0.906873
0.580155 0.906731 1.02106
0.58114 0.906323 1.15365
0.581391 1.01969 0.446899
0.580443 1.02073 0.579268
0.580155 1.02106 0.693269
0.58009 1.02113 0.8
0.580155 1.02106 0.906731
0.580443 1.02073 1.02073
0.581391 1.01969 1.1531
0.582227 1.15046 0.449537
0.581391 1.1531 0.580307
0.58114 1.15365 0.693677
0.581082 1.15375 0.8
0.58114 1.15365 0.906323
0.581391 1.1531 1.01969
0.582227 1.15046 1.15046
0.695522 0.449169 0.449082
0.695316 0.446469 0.580035
0.695245 0.445901 0.693567
0.695249 0.445793 0.800033
0.695428 0.445902 0.906549
0.699827 0.446474 1.02004
0.699985 0.449171 1.15084
0.699763 0.580175 0.446458
0.699721 0.579117 0.579024
0.699711 0.578783 0.693168
0.699715 0.578704 0.80001
0.699755 0.578771 0.906847
0.699954 0.579045 1.02099
0.699991 0.580103 1.15353
0.699982 0.693612 0.445904
0.699981 0.693195 0.578693
0.699981 0.693051 0.693023
0.699981 0.693013 0.8
0.699982 0.693046 0.906979
0.699993 0.693175 1.02131
0.7 0.693592 1.1541
0.7 0.800007 0.445796
0.699999 0.800009 0.578614
0.699998 0.80001 0.692986
0.7 0.80001 0.8
0.7 0.800008 0.907014
0.7 0.8 1.02139
0.7 0.8 1.1542
0.7 0.906409 0.445906
0.7 0.906831 0.578695
0.7 0.906978 0.693024
0.7 0.907015 0.8
0.7 0.906977 0.906976
0.7 0.90683 1.02131
0.7 0.906409 1.15409
0.7 1.0199 0.446474
0.7 1.02097 0.579033
0.7 1.02131 0.69317
0.7 1.02139 0.8
0.7 1.02131 0.90683
0.7 1.02097 1.02097
0.7 1.0199 1.15353
0.7 1.15083 0.449171
0.7 1.15353 0.580102
0.7 1.15409 0.693591
0.7 1.1542 0.8
0.7 1.15409 0.906409
0.7 1.15353 1.0199
0.7 1.15083 1.15083
0.805278 0.449526 0.449121
0.805652 0.446867 0.580065
0.805777 0.446319 0.693617
0.80588 0.446214 0.800155
0.805729 0.446313 0.906854
0.818419 0.446903 1.02018
0.817757 0.449538 1.15056
0.818091 0.580574 0.446831
0.818935 0.579574 0.579237
0.819206 0.579262 0.693268
0.819279 0.579185 0.800029
0.819292 0.579228 0.906795
0.81946 0.57931 1.02081
0.8186 0.580312 1.15313
0.818852 0.693789 0.446341
0.819831 0.693401 0.578936
0.820133 0.693265 0.693126
0.820203 0.693227 0.800006
0.820139 0.693244 0.906881
0.819838 0.693292 1.02107
0.818858 0.69368 1.15366
0.818912 0.800043 0.446244
0.819904 0.80005 0.578864
0.820211 0.800053 0.693091
0.820281 0.800052 0.8
0.820212 0.800044 0.906911
0.819908 0.800013 1.02114
0.818917 0.8 1.15376
0.818859 0.906334 0.44635
0.819844 0.906746 0.578941
0.820146 0.906889 0.693127
0.820216 0.906924 0.8
0.820147 0.906885 0.906873
0.819845 0.906735 1.02106
0.81886 0.906323 1.15365
0.818609 1.01969 0.446899
0.819556 1.02073 0.579268
0.819845 1.02106 0.693269
0.81991 1.02114 0.8
0.819845 1.02106 0.906731
0.819556 1.02073 1.02073
0.818609 1.01969 1.1531
0.817773 1.15046 0.449537
0.818609 1.1531 0.580307
0.81886 1.15365 0.693677
0.818918 1.15375 0.8
0.81886 1.15365 0.906323
0.818609 1.1531 1.01969
0.817773 1.15046 1.15046
0.919566 0.450847 0.449736
0.920632 0.448503 0.580493
0.921002 0.448007 0.694086
0.92135 0.447941 0.800775
0.920078 0.44808 0.907845
0.950123 0.449217 1.01977
0.948175 0.451796 1.14892
0.948606 0.582353 0.449155
0.950834 0.581643 0.580172
0.951336 0.581387 0.693697
0.951502 0.581267 0.800125
0.951641 0.581181 0.906476
0.952692 0.580558 1.02013
0.950422 0.581226 1.15064
0.951018 0.694753 0.449025
0.953749 0.694508 0.579987
0.954326 0.6944 0.693545
0.954436 0.694354 0.800012
0.954315 0.694301 0.906487
0.95362 0.693793 1.02002
0.950898 0.694041 1.15097
0.950982 0.800342 0.448947
0.953708 0.8004 0.579933
0.954287 0.800409 0.693512
0.954399 0.800404 0.800004
0.954288 0.800354 0.906496
0.953715 0.800061 1.02007
0.950989 0.800009 1.15105
0.9509 0.906061 0.449044
0.953612 0.90644 0.580005
0.954185 0.906566 0.693545
0.954295 0.906596 0.8
0.954185 0.906548 0.906457
0.953612 0.90635 1.02
0.9509 0.905972 1.15095
0.950429 1.0188 0.449519
0.953066 1.01972 0.580292
0.953612 1.02001 0.69367
0.953716 1.02007 0.8
0.953612 1.02 0.906331
0.953066 1.01971 1.01971
0.950429 1.01879 1.15048
0.948165 1.14821 0.451788
0.950429 1.15048 0.581209
0.9509 1.15095 0.694029
0.950989 1.15104 0.8
0.9509 1.15095 0.90597
0.950429 1.15048 1.01879
0.948165 1.14821 1.14821
1.04903 0.498112 0.453231
1.05148 0.497654 0.582682
1.052 0.497575 0.699693
1.05209 0.497563 0.816576
1.0527 0.497816 0.94485
VERTICES 250 500
1 0
1 1
1 2
1 3
1 4
1 5
1 6
1 7
1 8
1 9
1 10
1 11
1 12
1 13
1 14
1 15
1 16
1 17
1 18
1 19
1 20
1 21
1 22
1 23
1 24
1 25
1 26
1 27
1 28
1 29
1 30
1 31
1 32
1 33
1 34
1 35
1 36
1 37
1 38
1 39
1 40
1 41
1 42
1 43
1 44
1 45
1 46
1 47
1 48
1 49
1 50
1 51
1 52
1 53
1 54
1 55
1 56
1 57
1 58
1 59
1 60
1 61
1 62
1 63
1 64
1 65
1 66
1 67
1 68
1 69
1 70
1 71
1 72
1 73
1 74
1 75
1 76
1 77
1 78
1 79
1 80
1 81
1 82
1 83
1 84
1 85
1 86
1 87
1 88
1 89
1 90
1 91
1 92
1 93
1 94
1 95
1 96
1 97
1 98
1 99
1 100
1 101
1 102
1 103
1 104
1 105
1 106
1 107
1 108
1 109
1 110
1 111
1 112
1 113
1 114
1 115
1 116
1 117
1 118
1 119
1 120
1 121
1 122
1 123
1 124
1 125
1 126
1 127
1 128
1 129
1 130
1 131
1 132
1 133
1 134
1 135
1 136
1 137
1 138
1 139
1 140
1 141
1 142
1 143
1 144
1 145
1 146
1 147
1 148
1 149
1 150
1 151
1 152
1 153
1 154
1 155
1 156
1 157
1 158
1 159
1 160
1 161
1 162
1 163
1 164
1 165
1 166
1 167
1 168
1 169
1 170
1 171
1 172
1 173
1 174
1 175
1 176
1 177
1 178
1 179
1 180
1 181
1 182
1 183
1 184
1 185
1 186
1 187
1 188
1 189
1 190
1 191
1 192
1 193
1 194
1 195
1 196
1 197
1 198
1 199
1 200
1 201
1 202
1 203
1 204
1 205
1 206
1 207
1 208
1 209
1 210
1 211
1 212
1 213
1 214
1 215
1 216
1 217
1 218
1 219
1 220
1 221
1 222
1 223
1 224
1 225
1 226
1 227
1 228
1 229
1 230
1 231
1 232
1 233
1 234
1 235
1 236
1 237
1 238
1 239
1 240
1 241
1 242
1 243
1 244
1 245
1 246
1 247
1 248
1 249
POINT_DATA 250
VECTORS velocity float
-0.142989 -0.1431 -0.143113
-0.149383 -0.14951 -0.0875456
-0.151523 -0.151662 -0.0414917
-0.15205 -0.152197 -3.64068e-07
-0.151471 -0.151663 0.0415072
-0.149011 -0.149516 0.0875565
-0.14259 -0.143105 0.14311
-0.149011 -0.0875268 -0.149519
-0.156501 -0.0909424 -0.0909576
-0.158944 -0.0924396 -0.0433301
-0.159545 -0.0928874 9.34792e-06
-0.158931 -0.0924422 0.0433268
-0.156457 -0.0909529 0.0909609
-0.148963 -0.0875379 0.14952
-0.151088 -0.0414857 -0.15167
-0.15889 -0.0433263 -0.0924538
-0.161476 -0.0441261 -0.0441309
-0.162109 -0.0443726 -5.56927e-06
-0.161473 -0.0441267 0.044136
-0.158884 -0.0433283 0.0924552
-0.151082 -0.0414878 0.151668
-0.151608 -5.20786e-06 -0.152205
-0.159486 9.40754e-06 -0.0929008
-0.162101 -3.38063e-06 -0.0443776
-0.162756 -1.14373e-06 -3.48606e-06
-0.162101 -4.63924e-06 0.0443799
-0.159485 7.63117e-06 0.0928993
-0.151607 -7.75988e-06 0.152203
-0.151081 0.041491 -0.151669
-0.158882 0.043324 -0.0924532
-0.161467 0.0441353 -0.0441306
-0.1621 0.04438 -6.16786e-06
-0.161467 0.0441355 0.0441353
-0.158882 0.0433236 0.092454
-0.151081 0.0414917 0.151668
-0.148962 0.0875381 -0.149516
-0.156444 0.0909569 -0.0909558
-0.158882 0.0924544 -0.0433292
-0.159484 0.0928992 6.20845e-06
-0.158882 0.0924541 0.0433237
-0.156444 0.0909571 0.0909569
-0.148962 0.0875379 0.149519
-0.142585 0.143107 -0.143105
-0.148962 0.149519 -0.0875383
-0.151081 0.151668 -0.0414881
-0.151607 0.152203 -7.97339e-06
-0.151081 0.151668 0.0414916
-0.148962 0.149519 0.0875379
-0.142586 0.143107 0.143107
-0.0852234 -0.149348 -0.149478
-0.0883798 -0.156846 -0.0909221
-0.0897631 -0.159308 -0.0432969
-0.0901321 -0.159914 6.06099e-05
-0.0892626 -0.159308 0.0434812
-0.0811179 -0.156864 0.0910434
-0.0778897 -0.149367 0.149396
-0.0811889 -0.0907105 -0.156889
-0.0844648 -0.0945029 -0.0946427
-0.0858529 -0.0961736 -0.0452914
-0.0862449 -0.0966735 2.26207e-05
-0.0857548 -0.0961949 0.0453108
-0.0839989 -0.0946077 0.0946588
-0.0807172 -0.0908194 0.156871
-0.0819561 -0.0432257 -0.159332
-0.0853127 -0.0452473 -0.0963114
-0.0867554 -0.0461346 -0.0461756
-0.0871683 -0.0464103 7.94393e-06
-0.0867452 -0.0461413 0.0461751
-0.0852722 -0.0452762 0.0963167
-0.0819136 -0.0432527 0.15933
-0.082266 2.12124e-05 -0.159936
-0.0856604 2.27618e-05 -0.0968113
-0.0871185 2.33817e-05 -0.0464467
-0.0875437 2.50873e-05 5.26061e-06
-0.0871174 1.87683e-05 0.0464457
-0.0856597 1.02277e-05 0.0968118
-0.0822656 5.97784e-06 0.159936
-0.0819126 0.0432475 -0.159329
-0.0852624 0.0452844 -0.0963096
-0.086702 0.0461702 -0.046173
-0.0871164 0.0464452 3.20264e-06
-0.0867015 0.0461706 0.0461701
-0.0852619 0.0452842 0.0963122
-0.0819122 0.0432471 0.159328
-0.0807063 0.0908237 -0.156865
-0.0838973 0.094628 -0.0946295
-0.085262 0.0963127 -0.0452831
-0.0856586 0.0968119 4.19871e-06
-0.0852619 0.0963122 0.0452838
-0.0838972 0.0946275 0.0946275
-0.0807061 0.0908239 0.156865
-0.0778559 0.149371 -0.149367
-0.0807062 0.156865 -0.0908222
-0.0819123 0.159328 -0.043253
-0.0822653 0.159936 4.18492e-06
-0.0819121 0.159328 0.0432471
-0.0807064 0.156865 0.0908234
-0.077856 0.149371 0.149371
-0.02859 -0.150853 -0.15142
-0.0294615 -0.158596 -0.0922244
-0.0298697 -0.161148 -0.0439251
-0.0298725 -0.161779 0.000259073
-0.0296576 -0.161149 0.0447097
-0.000451508 -0.158553 0.0927046
-4.12327e-05 -0.150833 0.150951
-0.00114382 -0.0913145 -0.158645
-0.0013532 -0.0951847 -0.0957226
-0.00140073 -0.0968917 -0.0458282
-0.00139277 -0.0974027 4.00568e-05
-0.00121035 -0.0969493 0.045925
-0.000205461 -0.0956082 0.095786
-3.19488e-05 -0.0917422 0.158585
-2.86008e-05 -0.0435957 -0.161121
-5.11309e-05 -0.0456547 -0.0974181
-6.14688e-05 -0.0465601 -0.0467462
-5.63653e-05 -0.0468439 1.91547e-05
-3.94196e-05 -0.046591 0.046747
-2.71355e-05 -0.045798 0.0974251
-1.29155e-05 -0.0437359 0.161114
-2.38626e-05 5.51685e-05 -0.161745
-3.0991e-05 6.12703e-05 -0.0979291
-3.25553e-05 6.67157e-05 -0.0470252
-3.02222e-05 6.40551e-05 3.08172e-06
-2.46221e-05 5.6824e-05 0.0470239
-1.17935e-05 2.42226e-05 0.0979319
-5.37511e-06 4.91704e-06 0.161741
-8.69466e-06 0.0437511 -0.16111
-8.72238e-06 0.045845 -0.0974113
-1.04978e-05 0.0467627 -0.0467409
-1.01702e-05 0.0470451 2.78088e-06
-8.11826e-06 0.0467553 0.046739
-2.99484e-06 0.045826 0.0974123
-1.9805e-06 0.0437383 0.161108
-2.34349e-06 0.0917464 -0.158556
-2.47762e-06 0.0956769 -0.0956733
-1.47153e-06 0.097414 -0.045824
-2.51692e-06 0.0979308 -1.90332e-07
-7.33498e-07 0.0974126 0.0458247
-1.36464e-06 0.0956744 0.0956745
-1.30366e-06 0.0917451 0.158555
1.01139e-06 0.150835 -0.150835
-1.22831e-06 0.158555 -0.0917481
-1.50717e-06 0.161108 -0.0437375
-5.01497e-07 0.16174 -2.59447e-06
-1.41985e-06 0.161108 0.0437382
-8.71037e-07 0.158555 0.0917448
1.174e-06 0.150835 0.150835
0.0310856 -0.149317 -0.151321
0.0325994 -0.156947 -0.0920863
0.0332924 -0.159408 -0.0435743
0.0339171 -0.160016 0.000993067
0.0299397 -0.159464 0.0459248
0.0817235 -0.156832 0.0926842
0.0778156 -0.149358 0.149919
0.0790773 -0.0900061 -0.157138
0.0818586 -0.0936846 -0.0947531
0.0831439 -0.0953099 -0.0452655
0.0835569 -0.0958021 0.000129643
0.0833887 -0.0953671 0.0455116
0.0835919 -0.0945087 0.0949301
0.0806811 -0.0908045 0.156987
0.081995 -0.0427104 -0.159362
0.0853407 -0.0446588 -0.0963347
0.0867785 -0.0455178 -0.0461758
0.0871977 -0.0457919 2.58952e-05
0.0867764 -0.0455937 0.0462087
0.0852543 -0.0451852 0.0963507
0.0819082 -0.0432454 0.159349
0.082237 0.000282832 -0.159946
0.0856255 0.000332163 -0.0968203
0.0870823 0.000345441 -0.0464508
0.0875071 0.000343081 1.68949e-05
0.087087 0.000292088 0.0464594
0.0856506 5.25879e-05 0.0968236
0.0822646 2.90064e-05 0.159942
0.0819035 0.0433561 -0.159331
0.0852506 0.0454154 -0.0963119
0.0866848 0.0463109 -0.0461755
0.0871026 0.0465824 7.36022e-06
0.0866874 0.0462849 0.0461748
0.0852606 0.045322 0.0963164
0.0819129 0.0432477 0.159329
0.0807043 0.0908417 -0.156866
0.0838947 0.0946499 -0.0946298
0.085261 0.0963366 -0.0452837
0.0856555 0.0968346 4.97133e-06
0.0852614 0.0963297 0.0452847
0.0838964 0.0946327 0.0946282
0.080706 0.090824 0.156865
0.0778553 0.149372 -0.149367
0.0807059 0.156867 -0.0908222
0.0819132 0.15933 -0.043253
0.082265 0.159938 4.44008e-06
0.0819132 0.159329 0.0432477
0.0807061 0.156865 0.0908231
0.0778555 0.149371 0.149371
0.0899658 -0.146377 -0.148944
0.0937426 -0.15304 -0.0898091
0.0956662 -0.155289 -0.0407507
0.0975179 -0.155682 0.00337133
0.0879668 -0.154557 0.0496551
0.150715 -0.152141 0.0858826
0.14262 -0.143057 0.146008
0.140632 -0.0846988 -0.150811
0.146348 -0.0875143 -0.0913616
0.148517 -0.0889141 -0.0431792
0.14949 -0.0896438 5.63693e-05
0.150172 -0.0899419 0.0432197
0.154428 -0.0898118 0.0926497
0.148941 -0.087484 0.150221
0.151903 -0.0394347 -0.151701
0.159869 -0.0409299 -0.0925181
0.162482 -0.0416788 -0.0441348
0.163116 -0.0419925 3.13602e-05
0.162378 -0.0419154 0.0442477
0.158963 -0.0429375 0.0925373
0.151076 -0.0414422 0.151721
0.151547 0.00208249 -0.152256
0.159414 0.00240055 -0.0929468
0.162031 0.00245086 -0.0443997
0.162683 0.00242383 3.80976e-05
0.162038 0.00217299 0.0444473
0.159476 0.000322773 0.0929797
0.151605 2.71192e-05 0.152218
0.151083 0.0423756 -0.151683
0.158885 0.0443704 -0.0924676
0.161465 0.0452083 -0.044139
0.162105 0.0454423 6.33825e-06
0.161464 0.0450513 0.0441595
0.158883 0.0434967 0.0924778
0.151082 0.0415126 0.151671
0.148961 0.0876648 -0.149519
0.156443 0.0911076 -0.0909578
0.158883 0.0926159 -0.0433305
0.159482 0.0930579 9.01854e-06
0.158883 0.0925866 0.0433275
0.156443 0.0909873 0.0909604
0.148961 0.0875401 0.14952
0.142586 0.143112 -0.143106
0.148961 0.149526 -0.0875385
0.151081 0.151673 -0.0414882
0.151606 0.15221 -7.82544e-06
0.151081 0.151672 0.0414912
0.148961 0.149521 0.0875389
0.142586 0.143107 0.143107
0.146903 -0.00720278 -0.13959
0.154333 -0.00899904 -0.0769683
0.156822 -0.00945411 -0.0015405
0.157205 -0.00951968 0.0742422
0.160576 -0.00704243 0.132721
VECTORS force float
-0.0765303 -0.0774915 -0.0775973
-0.0780549 -0.0791067 -0.147103
-0.0816358 -0.082769 -0.139694
-0.0830509 -0.0842435 2.90835e-05
-0.0812687 -0.0827757 0.139839
-0.0749342 -0.07917 0.147179
-0.0731402 -0.0775547 0.0775794
-0.0749241 -0.146966 -0.0791928
-0.0768786 -0.148676 -0.148777
-0.0807377 -0.151509 -0.141117
-0.0822573 -0.152853 1.99784e-05
-0.0806625 -0.151526 0.141134
-0.0765961 -0.14875 0.148792
-0.0746153 -0.147048 0.0791852
-0.0780632 -0.139634 -0.0828509
-0.0803972 -0.141079 -0.151603
-0.0845482 -0.142854 -0.142895
-0.0861397 -0.143705 -5.10586e-06
-0.0845358 -0.142861 0.142921
-0.0803631 -0.141106 0.151586
-0.0780276 -0.139653 0.0828532
-0.0794094 -1.11704e-05 -0.0843222
-0.081883 1.57459e-05 -0.152949
-0.086097 7.89359e-06 -0.14374
-0.0877824 1.34314e-05 2.22853e-07
-0.0860979 3.39041e-06 0.143741
-0.0818794 1.21104e-05 0.152939
-0.0794073 -2.25564e-05 0.0843234
-0.078026 0.139687 -0.082847
-0.0803546 0.141107 -0.151602
-0.0845 0.142916 -0.14289
-0.0860963 0.14374 -8.79501e-06
-0.0844996 0.142916 0.142916
-0.0803555 0.141106 0.151581
-0.0780259 0.139687 0.0828519
-0.0746077 0.147035 -0.079177
-0.0765242 0.148772 -0.148769
-0.0803553 0.151582 -0.141111
-0.0818791 0.152939 4.28942e-06
-0.0803552 0.151581 0.141108
-0.0765241 0.148774 0.148773
-0.0746077 0.147035 0.0791779
-0.0731138 0.0775592 -0.0775554
-0.0746073 0.0791779 -0.14705
-0.0780258 0.0828523 -0.139653
-0.0794062 0.0843231 -2.47718e-05
-0.0780259 0.0828519 0.139687
-0.0746079 0.0791779 0.147035
-0.0731135 0.077559 0.0775591
-0.129035 -0.0781977 -0.0789542
-0.129537 -0.0801281 -0.148548
-0.131672 -0.0841488 -0.14081
-0.13265 -0.0857387 0.000260488
-0.130382 -0.0841498 0.141986
-0.0889213 -0.0802909 0.149326
-0.0879549 -0.0783715 0.0785183
-0.0897377 -0.147394 -0.0804147
-0.0900848 -0.148965 -0.149683
-0.0917138 -0.151922 -0.141903
-0.0925355 -0.153342 0.000113711
-0.0914329 -0.152022 0.141966
-0.0883813 -0.149536 0.149775
-0.0880664 -0.147991 0.0803348
-0.0894812 -0.140456 -0.0843539
-0.0897176 -0.141687 -0.152643
-0.091372 -0.143485 -0.143676
-0.0922169 -0.144366 1.56266e-05
-0.0913768 -0.143504 0.143693
-0.0896861 -0.141829 0.152645
-0.0894006 -0.140595 0.0843498
-0.0901398 9.33658e-05 -0.0859357
-0.0904508 0.00013256 -0.154067
-0.0921455 0.000133336 -0.14455
-0.0929997 0.00014694 1.58546e-05
-0.092127 0.000105622 0.144539
-0.0904502 4.31832e-05 0.15407
-0.0901457 -5.60267e-06 0.0859336
-0.0894017 0.140607 -0.0843405
-0.089639 0.141864 -0.152633
-0.0912924 0.143675 -0.143671
-0.0921347 0.144537 8.51141e-07
-0.0912901 0.143671 0.14367
-0.0896353 0.141859 0.152631
-0.0893984 0.140605 0.0843404
-0.0879858 0.148007 -0.0803064
-0.0880886 0.149621 -0.149621
-0.0896362 0.15263 -0.141869
-0.0904475 0.15407 1.31161e-05
-0.0896355 0.152632 0.141857
-0.0880875 0.149625 0.149625
-0.0879851 0.148008 0.0803064
-0.0878369 0.0783715 -0.0783739
-0.087986 0.0803079 -0.147998
-0.0893999 0.0843409 -0.140603
-0.0901462 0.0859338 -1.06727e-05
-0.0893996 0.0843403 0.140607
-0.0879844 0.0803066 0.148007
-0.0878365 0.078371 0.0783712
-0.0723279 -0.0797328 -0.0817479
-0.0717389 -0.0819443 -0.150423
-0.0721836 -0.0861011 -0.141624
-0.0721217 -0.0877315 0.00121825
-0.0816134 -0.0861241 0.144477
0.00435711 -0.0817631 0.15171
6.08605e-05 -0.0796826 0.0802544
-0.00101212 -0.147731 -0.0820398
-0.00141016 -0.149301 -0.150521
-0.00147649 -0.152263 -0.142227
-0.00152175 -0.153695 -4.71169e-05
-0.00142269 -0.1523 0.142635
-8.79699e-05 -0.150312 0.15071
5.25397e-05 -0.148733 0.0818905
0.000304775 -0.140499 -0.0859767
0.000270897 -0.141665 -0.153482
0.000260156 -0.143473 -0.144184
0.000264685 -0.144321 4.50994e-05
0.000254579 -0.143535 0.144171
6.61342e-05 -0.142281 0.153498
-1.31319e-05 -0.141104 0.085967
-5.88482e-05 0.000175506 -0.0876078
-5.82545e-05 0.000206307 -0.154935
-5.25097e-05 0.000236766 -0.145055
-6.82873e-05 0.000226035 9.32426e-06
-5.46024e-05 0.000180139 0.145058
-1.80624e-05 0.000110946 0.154937
-1.16173e-05 2.33007e-05 0.0875976
-3.45055e-05 0.141261 -0.0859587
-3.63083e-05 0.142525 -0.153471
-4.55456e-05 0.144362 -0.144166
-4.51901e-05 0.145238 5.64336e-06
-4.1728e-05 0.144336 0.144172
-1.05731e-05 0.14235 0.153472
-2.66738e-06 0.141102 0.0859561
-6.52054e-06 0.148766 -0.0817992
-1.1911e-05 0.150428 -0.150416
-7.75657e-06 0.15349 -0.142331
-1.06548e-05 0.154949 -1.96912e-06
-5.05015e-06 0.153481 0.142342
-4.59195e-06 0.150406 0.15041
-1.01738e-06 0.148753 0.081799
4.26428e-09 0.0796938 -0.0796946
-7.6022e-07 0.0818012 -0.148756
-3.05071e-07 0.0859582 -0.14109
-1.93619e-06 0.0875959 -9.05854e-06
-8.54098e-08 0.0859581 0.141103
-1.50081e-06 0.0817999 0.148752
3.38322e-07 0.0796934 0.0796937
0.072012 -0.0768187 -0.0818537
0.0721408 -0.0791974 -0.150013
0.0733288 -0.08317 -0.140122
0.0758174 -0.0847491 0.00336564
0.0505701 -0.0834848 0.146591
0.0998351 -0.0801641 0.14602
0.0878306 -0.0783304 0.0799763
0.0865438 -0.149438 -0.0806531
0.0858439 -0.151059 -0.149693
0.087192 -0.154099 -0.141655
0.0880054 -0.155488 0.000169723
0.0874196 -0.153617 0.141889
0.0877164 -0.149805 0.149954
0.087906 -0.14798 0.0805783
0.0901272 -0.139755 -0.0843587
0.0904725 -0.140963 -0.152666
0.0921496 -0.142679 -0.143595
0.0930009 -0.143502 -8.38276e-05
0.0920439 -0.142663 0.143754
0.0896746 -0.14174 0.152661
0.0893995 -0.140618 0.0843748
0.0900592 0.000973339 -0.0859616
0.0903401 0.00116057 -0.154098
0.0920148 0.00118671 -0.144564
0.0928945 0.00120483 5.7416e-05
0.0920394 0.00105441 0.14457
0.0904354 2.62265e-05 0.154113
0.090147 7.58303e-05 0.0859459
0.0893449 0.141284 -0.0843548
0.0895664 0.142606 -0.152649
0.091207 0.144468 -0.143678
0.0920605 0.145328 1.64129e-05
0.0912219 0.144346 0.143699
0.0896208 0.142056 0.15265
0.0893992 0.140607 0.0843441
0.0879644 0.148156 -0.0803108
0.0880689 0.149812 -0.149625
0.0896152 0.152829 -0.141871
0.090424 0.154259 1.88166e-05
0.0896191 0.152785 0.141866
0.088082 0.149673 0.149627
0.0879807 0.148007 0.0803087
0.0878331 0.0783809 -0.0783744
0.0879799 0.0803165 -0.147998
0.0893993 0.0843531 -0.140603
0.0901451 0.0859456 -8.81794e-06
0.0893999 0.0843481 0.140607
0.0879812 0.0803101 0.148007
0.0878344 0.0783721 0.0783718
0.151141 -0.0764483 -0.0781998
0.152949 -0.0779364 -0.144122
0.156416 -0.0815829 -0.13414
0.162143 -0.0827335 0.00886107
0.134893 -0.0777775 0.153575
0.0822566 -0.0936039 0.124383
0.0729328 -0.0774174 0.0798212
0.0348735 -0.131886 -0.0821391
0.0321391 -0.132391 -0.149138
0.0348143 -0.135154 -0.142102
0.0383909 -0.137909 -0.00500177
0.0457111 -0.143131 0.138084
0.0653661 -0.142935 0.154425
0.0745743 -0.14701 0.080668
0.0812735 -0.142696 -0.0826101
0.0843291 -0.144181 -0.151532
0.0886281 -0.145919 -0.142978
0.0901951 -0.146952 0.000155136
0.0881561 -0.145875 0.142795
0.0806894 -0.140784 0.151453
0.0780146 -0.139533 0.0828555
0.0789768 0.00365311 -0.0845068
0.0813811 0.00408795 -0.153116
0.0855913 0.00414898 -0.143752
0.0872589 0.00407253 5.02578e-05
0.0856362 0.00407072 0.144
0.0818333 0.000354718 0.153212
0.0794023 -0.000110514 0.0843714
0.0780469 0.145178 -0.0829222
0.080385 0.147332 -0.151686
0.084509 0.149274 -0.142949
0.0861329 0.150062 7.36208e-05
0.084505 0.148512 0.143059
0.0803637 0.141919 0.151731
0.0780284 0.139855 0.0828694
0.0746036 0.148216 -0.0791934
0.0765168 0.150168 -0.148786
0.0803549 0.153034 -0.141121
0.081868 0.15438 1.9833e-05
0.0803552 0.152804 0.141148
0.0765215 0.149034 0.148801
0.0746074 0.147057 0.0791851
0.0731151 0.0776106 -0.0775565
0.0746065 0.079236 -0.147051
0.0780271 0.0829098 -0.139654
0.0794013 0.0843846 -2.53403e-05
0.0780274 0.0828957 0.13969
0.0746074 0.0791912 0.147039
0.0731158 0.0775608 0.0775591
0.0963446 -0.0293095 -0.075725
0.102001 -0.0331136 -0.091848
0.107261 -0.035055 -0.00148518
0.106393 -0.0349205 0.0893652
0.116847 -0.0170407 0.0627349
SCALARS mass float 1
LOOKUP_TABLE default
1
1
1
1
1
1
1
1
1
1
1
1
1
1
1
1
1
1
1
1
1
1
1
1
1
1
1
1
1
1
1
1
1
1
1
1
1
1
1
1
1
1
1
1
1
1
1
1
1
1
1
1
1
1
1
1
1
1
1
1
1
1
1
1
1
1
1
1
1
1
1
1
1
1
1
1
1
1
1
1
1
1
1
1
1
1
1
1
1
1
1
1
1
1
1
1
1
1
1
1
1
1
1
1
1
1
1
1
1
1
1
1
1
1
1
1
1
1
1
1
1
1
1
1
1
1
1
1
1
1
1
1
1
1
1
1
1
1
1
1
1
1
1
1
1
1
1
1
1
1
1
1
1
1
1
1
1
1
1
1
1
1
1
1
1
1
1
1
1
1
1
1
1
1
1
1
1
1
1
1
1
1
1
1
1
1
1
1
1
1
1
1
1
1
1
1
1
1
1
1
1
1
1
1
1
1
1
1
1
1
1
1
1
1
1
1
1
1
1
1
1
1
1
1
1
1
1
1
1
1
1
1
1
1
1
1
1
1
1
1
1
1
1
1
1
1
1
1
1
1
