# vtk DataFile Version 3.0
Molecular Dynamics Particle Data
ASCII
DATASET POLYDATA
POINTS 250 float
0.465662 0.465659 0.465658
0.464025 0.46402 0.589145
0.463747 0.463741 0.697426
0.463702 0.463697 0.8
0.463748 0.463742 0.902574
0.464033 0.46402 1.01085
0.465672 0.465659 1.13434
0.464033 0.589146 0.46402
0.462132 0.588558 0.588558
0.461808 0.588407 0.697238
0.461755 0.588377 0.8
0.461808 0.588406 0.902763
0.462133 0.588558 1.01144
0.464035 0.589146 1.13598
0.463757 0.697427 0.463741
0.46181 0.697238 0.588406
0.46147 0.697183 0.697183
0.461416 0.697172 0.8
0.46147 0.697183 0.902817
0.46181 0.697238 1.01159
0.463757 0.697426 1.13626
0.463713 0.8 0.463697
0.461758 0.8 0.588377
0.461417 0.8 0.697172
0.46136 0.8 0.8
0.461417 0.8 0.902828
0.461758 0.8 1.01162
0.463713 0.8 1.1363
0.463758 0.902573 0.463741
0.46181 0.902762 0.588406
0.461471 0.902817 0.697183
0.461417 0.902828 0.8
0.461471 0.902817 0.902817
0.46181 0.902762 1.01159
0.463758 0.902573 1.13626
0.464035 1.01085 0.46402
0.462134 1.01144 0.588558
0.46181 1.01159 0.697238
0.461758 1.01162 0.8
0.46181 1.01159 0.902762
0.462134 1.01144 1.01144
0.464035 1.01085 1.13598
0.465672 1.13434 0.465659
0.464035 1.13598 0.589146
0.463758 1.13626 0.697426
0.463713 1.1363 0.8
0.463758 1.13626 0.902573
0.464035 1.13598 1.01085
0.465672 1.13434 1.13434
0.589211 0.464027 0.464022
0.588636 0.462126 0.588559
0.588488 0.461801 0.697239
0.588462 0.461749 0.800001
0.588515 0.461801 0.902768
0.588893 0.462125 1.01144
0.58947 0.464027 1.13597
0.588891 0.588568 0.462124
0.588255 0.587899 0.587892
0.588091 0.587723 0.697023
0.588061 0.587689 0.8
0.588098 0.587722 0.902979
0.588281 0.587894 1.01211
0.588917 0.588563 1.13788
0.588775 0.697242 0.4618
0.588121 0.697024 0.587717
0.58795 0.69696 0.696958
0.587917 0.696947 0.8
0.587951 0.696959 0.903043
0.588124 0.697023 1.01228
0.588778 0.69724 1.1382
0.588751 0.8 0.461748
0.588093 0.8 0.587683
0.587921 0.8 0.696945
0.587888 0.8 0.8
0.587921 0.8 0.903056
0.588094 0.8 1.01232
0.588751 0.8 1.13825
0.588778 0.90276 0.4618
0.588125 0.902978 0.587717
0.587954 0.903043 0.696958
0.587921 0.903056 0.8
0.587954 0.903042 0.903042
0.588125 0.902978 1.01228
0.588778 0.90276 1.1382
0.588918 1.01144 0.462125
0.588287 1.01211 0.587893
0.588125 1.01228 0.697023
0.588094 1.01232 0.8
0.588125 1.01228 0.902978
0.588287 1.01211 1.01211
0.588918 1.01144 1.13788
0.589472 1.13597 0.464027
0.588918 1.13788 0.588563
0.588778 1.1382 0.69724
0.588751 1.13825 0.8
0.588778 1.1382 0.90276
0.588918 1.13788 1.01144
0.589472 1.13597 1.13597
0.69796 0.463798 0.463758
0.697841 0.461858 0.588417
0.697807 0.461522 0.697189
0.697812 0.461468 0.800013
0.697934 0.461523 0.902863
0.699888 0.46186 1.01162
0.699991 0.463799 1.13621
0.69987 0.588481 0.461852
0.699846 0.587798 0.587752
0.699841 0.587618 0.696972
0.699843 0.587582 0.800004
0.699867 0.587611 0.903036
0.699972 0.587763 1.01225
0.699997 0.588446 1.13814
0.699988 0.697208 0.461523
0.699987 0.696985 0.587573
0.699987 0.696919 0.696907
0.699987 0.696904 0.8
0.699988 0.696916 0.903095
0.699997 0.696976 1.01243
0.7 0.697199 1.13848
0.7 0.800001 0.461469
0.7 0.800004 0.587537
0.7 0.800004 0.696892
0.7 0.800004 0.8
0.7 0.800002 0.903108
0.7 0.8 1.01246
0.7 0.8 1.13853
0.7 0.902802 0.461524
0.7 0.903027 0.587574
0.7 0.903094 0.696907
0.7 0.903108 0.8
0.7 0.903094 0.903093
0.7 0.903026 1.01243
0.7 0.902801 1.13848
0.7 1.01155 0.46186
0.7 1.01224 0.587756
0.7 1.01243 0.696974
0.7 1.01246 0.8
0.7 1.01243 0.903026
0.7 1.01224 1.01224
0.7 1.01155 1.13814
0.7 1.1362 0.463799
0.7 1.13814 0.588445
0.7 1.13848 0.697198
0.7 1.13853 0.8
0.7 1.13848 0.902801
0.7 1.13814 1.01155
0.7 1.1362 1.1362
0.802589 0.464017 0.463787
0.802814 0.462106 0.588435
0.802878 0.461781 0.697212
0.80293 0.461729 0.800074
0.80305 0.461779 0.903055
0.81085 0.462127 1.01173
0.810517 0.464028 1.13602
0.810722 0.588744 0.462083
0.811287 0.5881 0.587875
0.811439 0.587932 0.697021
0.811475 0.587897 0.800017
0.8115 0.587906 0.903019
0.811646 0.587922 1.01215
0.811076 0.588567 1.13789
0.81121 0.697303 0.461794
0.811858 0.697098 0.587714
0.812027 0.697036 0.696957
0.812061 0.697021 0.800002
0.812032 0.697023 0.903047
0.81187 0.697037 1.01229
0.811221 0.697242 1.1382
0.811246 0.80002 0.461747
0.811902 0.800023 0.587682
0.812075 0.800025 0.696944
0.812108 0.800024 0.8
0.812075 0.80002 0.903057
0.811905 0.800007 1.01232
0.811249 0.8 1.13825
0.811222 0.902764 0.4618
0.811875 0.902983 0.587717
0.812045 0.903048 0.696958
0.812078 0.903061 0.8
0.812045 0.903046 0.903043
0.811875 0.902979 1.01228
0.811222 0.90276 1.1382
0.811082 1.01144 0.462125
0.811713 1.01211 0.587893
0.811875 1.01228 0.697023
0.811906 1.01232 0.8
0.811875 1.01228 0.902978
0.811713 1.01211 1.01211
0.811082 1.01144 1.13788
0.810528 1.13597 0.464027
0.811082 1.13788 0.588563
0.811222 1.1382 0.69724
0.811249 1.13825 0.8
0.811222 1.1382 0.90276
0.811082 1.13788 1.01144
0.810529 1.13597 1.13597
0.911417 0.465044 0.464184
0.912118 0.463356 0.588667
0.912317 0.463065 0.697435
0.912508 0.463032 0.800478
0.91205 0.463084 0.903718
0.935525 0.463912 1.01188
0.934333 0.465663 1.13477
0.934805 0.59006 0.463772
0.936451 0.589626 0.588478
0.936753 0.589494 0.697249
0.936838 0.589434 0.8001
0.936936 0.589359 0.902905
0.937647 0.588735 1.01172
0.935959 0.589158 1.13607
0.936294 0.697929 0.463725
0.938248 0.697819 0.588394
0.938587 0.697774 0.697182
0.938643 0.697754 0.800011
0.938584 0.697701 0.902838
0.938191 0.697323 1.01162
0.936241 0.697434 1.13627
0.936284 0.800159 0.463693
0.938239 0.800189 0.588374
0.93858 0.800193 0.69717
0.938636 0.80019 0.8
0.938581 0.800164 0.902834
0.938241 0.800032 1.01163
0.936287 0.800004 1.1363
0.936243 0.902601 0.463741
0.93819 0.902797 0.588405
0.938528 0.902852 0.697183
0.938583 0.902863 0.8
0.938528 0.902846 0.902817
0.93819 0.902769 1.0116
0.936243 0.902573 1.13626
0.935964 1.01086 0.46402
0.937866 1.01145 0.588558
0.93819 1.0116 0.697238
0.938242 1.01163 0.8
0.93819 1.0116 0.902763
0.937866 1.01144 1.01144
0.935964 1.01085 1.13598
0.934328 1.13434 0.465659
0.935964 1.13598 0.589146
0.936243 1.13626 0.697426
0.936287 1.1363 0.8
0.936243 1.13626 0.902573
0.935964 1.13598 1.01085
0.934328 1.13434 1.13434
1.03485 0.49871 0.466756
1.03658 0.498411 0.589818
1.03688 0.498369 0.699835
1.03694 0.498364 0.809698
1.03727 0.498447 0.931942
VERTICES 250 500
1 0
1 1
1 2
1 3
1 4
1 5
1 6
1 7
1 8
1 9
1 10
1 11
1 12
1 13
1 14
1 15
1 16
1 17
1 18
1 19
1 20
1 21
1 22
1 23
1 24
1 25
1 26
1 27
1 28
1 29
1 30
1 31
1 32
1 33
1 34
1 35
1 36
1 37
1 38
1 39
1 40
1 41
1 42
1 43
1 44
1 45
1 46
1 47
1 48
1 49
1 50
1 51
1 52
1 53
1 54
1 55
1 56
1 57
1 58
1 59
1 60
1 61
1 62
1 63
1 64
1 65
1 66
1 67
1 68
1 69
1 70
1 71
1 72
1 73
1 74
1 75
1 76
1 77
1 78
1 79
1 80
1 81
1 82
1 83
1 84
1 85
1 86
1 87
1 88
1 89
1 90
1 91
1 92
1 93
1 94
1 95
1 96
1 97
1 98
1 99
1 100
1 101
1 102
1 103
1 104
1 105
1 106
1 107
1 108
1 109
1 110
1 111
1 112
1 113
1 114
1 115
1 116
1 117
1 118
1 119
1 120
1 121
1 122
1 123
1 124
1 125
1 126
1 127
1 128
1 129
1 130
1 131
1 132
1 133
1 134
1 135
1 136
1 137
1 138
1 139
1 140
1 141
1 142
1 143
1 144
1 145
1 146
1 147
1 148
1 149
1 150
1 151
1 152
1 153
1 154
1 155
1 156
1 157
1 158
1 159
1 160
1 161
1 162
1 163
1 164
1 165
1 166
1 167
1 168
1 169
1 170
1 171
1 172
1 173
1 174
1 175
1 176
1 177
1 178
1 179
1 180
1 181
1 182
1 183
1 184
1 185
1 186
1 187
1 188
1 189
1 190
1 191
1 192
1 193
1 194
1 195
1 196
1 197
1 198
1 199
1 200
1 201
1 202
1 203
1 204
1 205
1 206
1 207
1 208
1 209
1 210
1 211
1 212
1 213
1 214
1 215
1 216
1 217
1 218
1 219
1 220
1 221
1 222
1 223
1 224
1 225
1 226
1 227
1 228
1 229
1 230
1 231
1 232
1 233
1 234
1 235
1 236
1 237
1 238
1 239
1 240
1 241
1 242
1 243
1 244
1 245
1 246
1 247
1 248
1 249
POINT_DATA 250
VECTORS velocity float
-0.133672 -0.133715 -0.13372
-0.139823 -0.139873 -0.070342
-0.141541 -0.141597 -0.0260955
-0.141908 -0.141967 -1.82549e-06
-0.141518 -0.141597 0.026099
-0.139688 -0.139874 0.0703478
-0.13353 -0.133716 0.133718
-0.139689 -0.0703346 -0.139876
-0.146879 -0.0734654 -0.0734722
-0.148859 -0.0746083 -0.0276124
-0.149285 -0.0748997 6.99571e-06
-0.148852 -0.0746095 0.027609
-0.146859 -0.07347 0.0734734
-0.139668 -0.0703393 0.139878
-0.141381 -0.0260935 -0.141599
-0.148834 -0.0276114 -0.0746148
-0.150921 -0.0281608 -0.0281624
-0.15137 -0.0283026 -4.6489e-06
-0.150919 -0.028161 0.0281645
-0.148831 -0.0276113 0.0746181
-0.141377 -0.0260941 0.141597
-0.141746 -3.29176e-06 -0.141969
-0.149257 7.32637e-06 -0.0749053
-0.151365 -3.44754e-06 -0.0283048
-0.151827 -1.62171e-06 -2.8514e-06
-0.151365 -4.22089e-06 0.0283057
-0.149257 5.87571e-06 0.0749056
-0.141745 -4.7655e-06 0.141968
-0.141377 0.0260934 -0.141598
-0.14883 0.0276083 -0.0746143
-0.150916 0.0281642 -0.0281625
-0.151365 0.0283058 -4.9349e-06
-0.150916 0.0281644 0.0281642
-0.148829 0.0276081 0.0746175
-0.141377 0.0260938 0.141596
-0.139667 0.070341 -0.139875
-0.146853 0.0734713 -0.0734712
-0.148829 0.0746177 -0.0276121
-0.149256 0.0749055 5.3029e-06
-0.148829 0.0746175 0.027608
-0.146852 0.0734713 0.0734712
-0.139667 0.0703409 0.139877
-0.133528 0.133717 -0.133716
-0.139667 0.139877 -0.0703395
-0.141377 0.141596 -0.0260943
-0.141745 0.141967 -4.9093e-06
-0.141377 0.141596 0.0260938
-0.139667 0.139877 0.0703409
-0.133528 0.133717 0.133717
-0.0694375 -0.139792 -0.139855
-0.0724295 -0.146988 -0.0734558
-0.0735209 -0.148975 -0.0276033
-0.0737692 -0.149401 3.63588e-05
-0.0732075 -0.148974 0.0276836
-0.0689487 -0.146993 0.0735104
-0.0659307 -0.139798 0.139814
-0.0689682 -0.0733512 -0.147007
-0.0721342 -0.07686 -0.0769331
-0.0732821 -0.0781538 -0.0292951
-0.0735634 -0.0784861 1.20736e-05
-0.0732174 -0.0781652 0.0293081
-0.0718525 -0.0769131 0.0769408
-0.0686817 -0.0734057 0.146997
-0.069704 -0.0275676 -0.148983
-0.0729584 -0.0292716 -0.0782246
-0.0741548 -0.0298969 -0.0299202
-0.0744519 -0.0300602 6.12683e-06
-0.0741452 -0.0299016 0.0299187
-0.0729246 -0.0292868 0.0782293
-0.0696741 -0.027582 0.148981
-0.0699257 1.2923e-05 -0.149408
-0.0732088 1.16337e-05 -0.0785565
-0.0744155 1.23121e-05 -0.0300801
-0.0747222 1.25534e-05 3.38943e-06
-0.0744148 1.00772e-05 0.0300808
-0.0732075 5.90868e-06 0.0785564
-0.069925 5.71806e-06 0.149408
-0.0696732 0.0275774 -0.14898
-0.072921 0.0292926 -0.0782236
-0.0741148 0.0299154 -0.0299183
-0.0744135 0.0300806 2.94184e-06
-0.0741144 0.029916 0.0299156
-0.0729208 0.0292926 0.0782263
-0.0696731 0.0275771 0.148979
-0.0686782 0.0734076 -0.146993
-0.0717869 0.0769243 -0.0769257
-0.0729208 0.0782268 -0.0292907
-0.0732068 0.0785563 2.75835e-06
-0.0729208 0.0782263 0.0292923
-0.0717869 0.0769238 0.0769238
-0.068678 0.0734076 0.146993
-0.0659114 0.139801 -0.139798
-0.068678 0.146993 -0.0734075
-0.069673 0.14898 -0.0275819
-0.0699247 0.149408 4.49217e-06
-0.0696729 0.148979 0.027577
-0.0686784 0.146993 0.0734073
-0.0659115 0.139801 0.139801
-0.019628 -0.141085 -0.141451
-0.0204765 -0.148491 -0.0744943
-0.0207932 -0.15055 -0.0280722
-0.0207865 -0.150995 0.000142618
-0.019998 -0.150549 0.0285726
-0.000704998 -0.148469 0.0748136
-4.5821e-05 -0.141075 0.141142
-0.000962002 -0.0738936 -0.148532
-0.00112649 -0.0774766 -0.0778628
-0.00116506 -0.078804 -0.0297348
-0.00115316 -0.0791448 4.02718e-05
-0.000993694 -0.0788517 0.0297908
-0.00018453 -0.0777767 0.0779071
-3.38916e-05 -0.0741974 0.14849
-5.15574e-05 -0.0278758 -0.150538
-6.8487e-05 -0.0296208 -0.07918
-7.6924e-05 -0.0302609 -0.030375
-7.28013e-05 -0.0304337 1.38137e-05
-5.69889e-05 -0.0302825 0.0303772
-3.24493e-05 -0.0297041 0.0791848
-1.09277e-05 -0.0279584 0.150532
-1.74603e-05 3.57937e-05 -0.150977
-2.28166e-05 4.32019e-05 -0.0795188
-2.44539e-05 4.66371e-05 -0.0305421
-2.16873e-05 4.47828e-05 2.10575e-06
-1.82623e-05 3.90906e-05 0.0305413
-9.4344e-06 1.44163e-05 0.0795208
-4.0214e-06 2.31837e-06 0.150974
-5.467e-06 0.0279627 -0.15053
-5.21236e-06 0.0297272 -0.0791746
-5.70858e-06 0.0303757 -0.0303715
-5.80546e-06 0.0305455 2.08403e-06
-4.20884e-06 0.0303724 0.0303696
-1.99548e-06 0.0297235 0.0791751
-1.64828e-06 0.0279613 0.150528
-1.73383e-06 0.0741989 -0.148469
-1.49486e-06 0.0778306 -0.0778272
-8.57718e-07 0.079176 -0.0297239
-1.51108e-06 0.0795198 4.98024e-08
-3.64732e-07 0.0791753 0.0297233
-9.14711e-07 0.0778296 0.0778292
-1.1799e-06 0.0741984 0.148468
9.84706e-07 0.141076 -0.141076
-1.16173e-06 0.148468 -0.0742009
-1.35378e-06 0.150528 -0.0279619
-2.67623e-07 0.150973 -1.54433e-06
-1.29019e-06 0.150528 0.0279611
-6.8437e-07 0.148468 0.0741982
1.07422e-06 0.141076 0.141076
0.0221593 -0.139851 -0.141343
0.0235687 -0.147133 -0.0743918
0.0240928 -0.149121 -0.0278633
0.0244914 -0.149549 0.000637363
0.0230471 -0.149146 0.0296082
0.0685482 -0.146974 0.0752331
0.0658698 -0.139792 0.140184
0.0671401 -0.0725187 -0.147224
0.0699168 -0.0759123 -0.077035
0.0709893 -0.0771584 -0.0292923
0.0712933 -0.0774875 0.000108819
0.0712254 -0.0772556 0.0295063
0.0715061 -0.076794 0.0771831
0.0686588 -0.0733921 0.147087
0.0696855 -0.0271497 -0.14901
0.0729184 -0.0287847 -0.0782442
0.0741079 -0.0293904 -0.029928
0.0744113 -0.0295582 3.28255e-05
0.0741178 -0.0294635 0.0299446
0.0729085 -0.0292102 0.07826
0.0696686 -0.027573 0.148997
0.0699048 0.000179769 -0.149415
0.0731834 0.000209638 -0.0785623
0.0743897 0.000219742 -0.0300828
0.0746957 0.000216177 1.1264e-05
0.0743933 0.000182601 0.0300904
0.0732 4.92096e-05 0.0785638
0.0699238 2.06138e-05 0.149412
0.069669 0.027626 -0.148982
0.0729158 0.029356 -0.0782246
0.0741051 0.0299836 -0.02992
0.0744063 0.0301453 5.56806e-06
0.0741064 0.0299693 0.0299181
0.0729208 0.0293088 0.0782286
0.0696736 0.0275775 0.14898
0.0686778 0.0734144 -0.146994
0.0717858 0.0769318 -0.0769258
0.0729213 0.0782356 -0.0292912
0.0732054 0.0785651 3.02986e-06
0.0729215 0.0782324 0.0292928
0.0717865 0.0769257 0.0769241
0.0686783 0.0734079 0.146993
0.065911 0.139802 -0.139798
0.0686783 0.146994 -0.0734076
0.0696737 0.148981 -0.0275818
0.0699243 0.149409 4.54148e-06
0.0696737 0.14898 0.0275776
0.0686784 0.146993 0.0734071
0.0659111 0.139802 0.139802
0.0720817 -0.136909 -0.139374
0.0755508 -0.143321 -0.0727455
0.0770251 -0.145133 -0.0258416
0.0783139 -0.145403 0.00262036
0.0716435 -0.144778 0.0323595
0.14054 -0.141185 0.0710893
0.133576 -0.133682 0.136249
0.134447 -0.0683662 -0.140921
0.140319 -0.0710045 -0.0738516
0.142136 -0.0720627 -0.0274751
0.142789 -0.0725377 0.000400442
0.143025 -0.0725414 0.0277775
0.14569 -0.0727672 0.0747221
0.13965 -0.0702906 0.140427
0.141896 -0.0237193 -0.14165
0.149444 -0.0248809 -0.0746807
0.151544 -0.0253787 -0.028162
0.151995 -0.025572 2.67905e-05
0.151483 -0.0256592 0.028276
0.148879 -0.0272265 0.0747072
0.141373 -0.0260603 0.141647
0.14172 0.00149986 -0.142003
0.149227 0.00174696 -0.074934
0.151336 0.00178547 -0.028318
0.151795 0.00176556 2.39318e-05
0.151339 0.00155214 0.0283488
0.149252 0.000259376 0.0749567
0.141744 3.65585e-05 0.141979
0.141377 0.026481 -0.141606
0.14883 0.0280814 -0.0746211
0.150914 0.0286497 -0.0281659
0.151366 0.0287846 7.96125e-07
0.150914 0.0285693 0.028175
0.14883 0.0276965 0.0746287
0.141377 0.0260982 0.141598
0.139666 0.0703825 -0.139875
0.146852 0.0735205 -0.073472
0.14883 0.0746727 -0.0276126
0.149255 0.0749586 6.81395e-06
0.14883 0.0746614 0.0276088
0.146851 0.0734821 0.0734727
0.139667 0.0703416 0.139878
0.133528 0.133719 -0.133716
0.139666 0.13988 -0.0703397
0.141377 0.141598 -0.0260943
0.141745 0.14197 -4.82715e-06
0.141377 0.141597 0.0260936
0.139667 0.139878 0.0703412
0.133528 0.133717 0.133717
0.136297 -0.00497497 -0.130274
0.143122 -0.00639088 -0.0646256
0.14504 -0.00667107 -0.0012566
0.145415 -0.00671781 0.0622245
0.14766 -0.00567731 0.124846
VECTORS force float
-0.113066 -0.113514 -0.113568
-0.116613 -0.117128 -0.198498
-0.121466 -0.122025 -0.160794
-0.123193 -0.123787 7.57604e-07
-0.121233 -0.122028 0.160888
-0.114962 -0.117153 0.198528
-0.111301 -0.113536 0.113555
-0.114956 -0.198406 -0.117165
-0.119258 -0.20265 -0.202717
-0.124665 -0.206861 -0.165922
-0.126593 -0.20857 2.73755e-05
-0.124609 -0.206871 0.165902
-0.119067 -0.202692 0.202747
-0.11475 -0.19846 0.117157
-0.119531 -0.16078 -0.122057
-0.124433 -0.165905 -0.206921
-0.130255 -0.168996 -0.169016
-0.132299 -0.170134 -1.62668e-05
-0.130246 -0.168999 0.169052
-0.124407 -0.165921 0.206903
-0.119504 -0.160783 0.122063
-0.121227 -2.3159e-05 -0.123819
-0.12634 2.62567e-05 -0.208626
-0.132265 -7.15833e-06 -0.170157
-0.1344 -2.04746e-06 -1.00436e-05
-0.132265 -1.24596e-05 0.170182
-0.126336 2.33527e-05 0.208602
-0.121225 -3.42906e-05 0.123817
-0.119503 0.160824 -0.122055
-0.1244 0.165888 -0.206918
-0.130219 0.169049 -0.169014
-0.132263 0.170182 -1.79335e-05
-0.130218 0.169048 0.169048
-0.124401 0.165885 0.206899
-0.119503 0.160827 0.122062
-0.114745 0.198445 -0.117155
-0.119013 0.202732 -0.202709
-0.1244 0.2069 -0.165918
-0.126335 0.208602 1.56985e-05
-0.1244 0.206899 0.165885
-0.119013 0.202734 0.202734
-0.114745 0.198444 0.117152
-0.111285 0.113542 -0.113536
-0.114745 0.117152 -0.198461
-0.119502 0.122062 -0.160784
-0.121224 0.123816 -3.47955e-05
-0.119503 0.122062 0.160826
-0.114746 0.117152 0.198444
-0.111285 0.113542 0.113542
-0.188311 -0.116441 -0.117
-0.191445 -0.120779 -0.202568
-0.195141 -0.12627 -0.165781
-0.196523 -0.128225 0.000264742
-0.192942 -0.126271 0.166588
-0.158483 -0.120871 0.20311
-0.154976 -0.116532 0.116633
-0.158739 -0.201634 -0.120967
-0.161028 -0.206036 -0.206622
-0.164293 -0.210587 -0.170944
-0.16566 -0.212443 9.62867e-05
-0.163922 -0.210678 0.171004
-0.159145 -0.206476 0.206694
-0.156802 -0.202108 0.120902
-0.1598 -0.165437 -0.126385
-0.162075 -0.170752 -0.211175
-0.165446 -0.174072 -0.174232
-0.166891 -0.175333 2.22428e-05
-0.165428 -0.174092 0.174233
-0.161952 -0.170883 0.211183
-0.159633 -0.165543 0.126377
-0.160886 7.7075e-05 -0.128332
-0.163276 8.95437e-05 -0.213033
-0.166709 8.9008e-05 -0.175479
-0.168193 0.000102382 2.18335e-05
-0.166709 7.0633e-05 0.175458
-0.163279 4.26141e-05 0.213046
-0.160885 1.38453e-05 0.128336
-0.159631 0.165519 -0.126373
-0.161898 0.170893 -0.211169
-0.165261 0.174215 -0.174222
-0.166708 0.175454 6.95355e-06
-0.165259 0.174217 0.174215
-0.161896 0.170894 0.211168
-0.159629 0.165518 0.126369
-0.156748 0.202137 -0.120876
-0.158735 0.206568 -0.206571
-0.161897 0.21117 -0.1709
-0.163275 0.213047 1.61475e-05
-0.161896 0.211169 0.170893
-0.158735 0.206566 0.206566
-0.156747 0.202139 0.120878
-0.154816 0.116532 -0.116533
-0.156748 0.120878 -0.202117
-0.15963 0.126369 -0.165546
-0.160884 0.128335 7.71672e-06
-0.159629 0.12637 0.16552
-0.156746 0.120878 0.202137
-0.154816 0.116531 0.116532
-0.103806 -0.119148 -0.121131
-0.105193 -0.123923 -0.205973
-0.106598 -0.129639 -0.168054
-0.106785 -0.131672 0.00106288
-0.108415 -0.129642 0.17089
0.000465832 -0.123716 0.207761
1.66887e-05 -0.119044 0.119486
-0.00272243 -0.202619 -0.12401
-0.00323395 -0.207101 -0.208854
-0.00335569 -0.211704 -0.1726
-0.00337885 -0.213602 7.09155e-05
-0.00299887 -0.211863 0.172967
-0.000362062 -0.208506 0.209049
-3.55403e-05 -0.204045 0.123825
0.000134959 -0.166654 -0.12948
6.30911e-05 -0.171986 -0.213433
3.66583e-05 -0.17537 -0.176063
5.01732e-05 -0.176638 6.40518e-05
7.9899e-05 -0.175487 0.176046
9.91007e-07 -0.17254 0.213461
-3.07626e-05 -0.167159 0.129463
-6.6548e-05 0.000239378 -0.1315
-9.17057e-05 0.000185633 -0.215346
-9.17676e-05 0.000195102 -0.177327
-9.31795e-05 0.0001909 1.02027e-05
-7.02875e-05 0.000203502 0.177315
-3.45665e-05 8.50952e-05 0.215358
-1.46938e-05 2.07344e-05 0.131487
-2.98076e-05 0.16721 -0.129455
-3.0772e-05 0.172738 -0.213418
-4.52018e-05 0.176169 -0.17604
-4.03362e-05 0.177442 9.27966e-06
-3.55853e-05 0.176115 0.176032
-9.25945e-06 0.172634 0.213427
-4.62288e-06 0.167165 0.129449
-5.59728e-06 0.204063 -0.123734
-7.58153e-06 0.208691 -0.208691
-4.23554e-06 0.213429 -0.172612
-9.78325e-06 0.215351 -3.23403e-06
-2.10319e-06 0.213424 0.172623
-4.33775e-06 0.208682 0.208686
-1.46219e-06 0.204058 0.123736
7.38931e-07 0.119051 -0.11905
-6.80597e-07 0.123736 -0.204068
-3.66682e-06 0.129451 -0.167146
-2.88463e-06 0.131483 -1.18901e-05
-3.42291e-06 0.129451 0.167167
-2.45498e-06 0.123736 0.204057
1.81433e-06 0.119051 0.119051
0.103933 -0.116045 -0.121198
0.106264 -0.120844 -0.205658
0.108456 -0.126324 -0.166767
0.110467 -0.128286 0.00359069
0.0862014 -0.126596 0.172547
0.167328 -0.120742 0.204937
0.154842 -0.116498 0.118204
0.156189 -0.201999 -0.121379
0.157437 -0.206357 -0.206795
0.160439 -0.210863 -0.170761
0.161788 -0.212661 0.000273512
0.160414 -0.210574 0.171165
0.158584 -0.206583 0.207114
0.156718 -0.202089 0.121181
0.160283 -0.16416 -0.126418
0.162651 -0.169411 -0.211223
0.166034 -0.172629 -0.174217
0.167477 -0.173839 3.74208e-05
0.165913 -0.172716 0.174284
0.161968 -0.170684 0.211232
0.159638 -0.165552 0.126412
0.160804 0.001021 -0.12836
0.163184 0.00123621 -0.213066
0.166612 0.00125879 -0.17549
0.168091 0.00126395 6.00365e-05
0.166622 0.00106556 0.175498
0.163266 5.82559e-05 0.213087
0.160887 9.236e-05 0.128349
0.159592 0.166016 -0.126383
0.161845 0.171463 -0.211178
0.165197 0.174838 -0.174231
0.166654 0.176063 2.0627e-05
0.165208 0.174737 0.174233
0.161886 0.171107 0.211186
0.159633 0.165521 0.126374
0.156736 0.202215 -0.120879
0.158725 0.206665 -0.206572
0.161888 0.211274 -0.170903
0.163265 0.213145 1.79252e-05
0.16189 0.211245 0.170898
0.158733 0.206583 0.206569
0.156743 0.202137 0.120878
0.154812 0.116537 -0.116533
0.156743 0.120883 -0.202117
0.159634 0.126376 -0.165546
0.160887 0.128342 1.00741e-05
0.159634 0.126373 0.16552
0.156744 0.12088 0.202136
0.154812 0.116533 0.116532
0.206934 -0.11644 -0.116719
0.21153 -0.120204 -0.199061
0.216984 -0.12529 -0.15695
0.222352 -0.126586 0.00615071
0.191704 -0.121754 0.184383
0.125559 -0.128433 0.173543
0.111216 -0.113395 0.118746
0.0916538 -0.196302 -0.119247
0.0916216 -0.199713 -0.202991
0.0960561 -0.203798 -0.165051
0.0990619 -0.206212 -0.00189253
0.101006 -0.206992 0.163392
0.112823 -0.199718 0.206123
0.114713 -0.198389 0.118727
0.122336 -0.162974 -0.12191
0.127877 -0.168196 -0.206974
0.133815 -0.171306 -0.168989
0.135855 -0.172598 -0.00010955
0.133428 -0.170678 0.169227
0.124715 -0.165976 0.2069
0.119494 -0.160706 0.122118
0.120967 0.00765359 -0.123996
0.12604 0.00865251 -0.208801
0.131974 0.00882323 -0.17028
0.134089 0.00876525 0.000172839
0.131997 0.00801213 0.17042
0.126305 0.000952299 0.2089
0.121219 6.64038e-06 0.123861
0.119513 0.164908 -0.122111
0.124419 0.170704 -0.206982
0.130213 0.173994 -0.169054
0.132286 0.175076 3.68176e-05
0.130211 0.173287 0.16916
0.12441 0.166681 0.206997
0.119505 0.160941 0.122076
0.114744 0.198991 -0.117164
0.11901 0.203379 -0.202718
0.124406 0.207595 -0.165924
0.126327 0.209293 2.58187e-05
0.124406 0.20747 0.165907
0.11901 0.202858 0.202744
0.114745 0.198453 0.117157
0.111288 0.113565 -0.113537
0.114745 0.117181 -0.198462
0.119503 0.122086 -0.160784
0.121219 0.123841 -3.42352e-05
0.119503 0.122078 0.160822
0.114745 0.117161 0.198451
0.111288 0.113543 0.113541
0.120573 -0.0155341 -0.113637
0.127188 -0.0192388 -0.158264
0.133295 -0.0207174 -0.00409999
0.134137 -0.0210459 0.154503
0.14508 -0.0104142 0.098841
SCALARS mass float 1
LOOKUP_TABLE default
1
1
1
1
1
1
1
1
1
1
1
1
1
1
1
1
1
1
1
1
1
1
1
1
1
1
1
1
1
1
1
1
1
1
1
1
1
1
1
1
1
1
1
1
1
1
1
1
1
1
1
1
1
1
1
1
1
1
1
1
1
1
1
1
1
1
1
1
1
1
1
1
1
1
1
1
1
1
1
1
1
1
1
1
1
1
1
1
1
1
1
1
1
1
1
1
1
1
1
1
1
1
1
1
1
1
1
1
1
1
1
1
1
1
1
1
1
1
1
1
1
1
1
1
1
1
1
1
1
1
1
1
1
1
1
1
1
1
1
1
1
1
1
1
1
1
1
1
1
1
1
1
1
1
1
1
1
1
1
1
1
1
1
1
1
1
1
1
1
1
1
1
1
1
1
1
1
1
1
1
1
1
1
1
1
1
1
1
1
1
1
1
1
1
1
1
1
1
1
1
1
1
1
1
1
1
1
1
1
1
1
1
1
1
1
1
1
1
1
1
1
1
1
1
1
1
1
1
1
1
1
1
1
1
1
1
1
1
1
1
1
1
1
1
1
1
1
1
1
1
