# vtk DataFile Version 3.0
Molecular Dynamics Particle Data
ASCII
DATASET POLYDATA
POINTS 250 float
0.478372 0.478371 0.47837
0.477326 0.477324 0.595098
0.477194 0.477192 0.699266
0.477178 0.477176 0.8
0.477194 0.477192 0.900734
0.477327 0.477324 1.0049
0.478373 0.47837 1.12163
0.477327 0.595098 0.477324
0.476117 0.594796 0.594796
0.475962 0.594736 0.699199
0.475942 0.594727 0.8
0.475962 0.594736 0.900802
0.476118 0.594796 1.0052
0.477328 0.595098 1.12268
0.477195 0.699266 0.477192
0.475962 0.699199 0.594736
0.4758 0.699183 0.699183
0.47578 0.699181 0.8
0.4758 0.699183 0.900817
0.475962 0.699199 1.00526
0.477196 0.699266 1.12281
0.477179 0.8 0.477176
0.475943 0.8 0.594727
0.475781 0.8 0.699181
0.47576 0.8 0.8
0.475781 0.8 0.900819
0.475943 0.8 1.00527
0.477179 0.8 1.12282
0.477196 0.900733 0.477192
0.475962 0.900802 0.594736
0.4758 0.900817 0.699183
0.475781 0.900819 0.8
0.4758 0.900817 0.900817
0.475962 0.900802 1.00526
0.477196 0.900733 1.12281
0.477328 1.0049 0.477324
0.476118 1.0052 0.594796
0.475962 1.00526 0.699199
0.475943 1.00527 0.8
0.475962 1.00526 0.900802
0.476118 1.0052 1.0052
0.477328 1.0049 1.12268
0.478373 1.12163 0.47837
0.477328 1.12268 0.595098
0.477196 1.12281 0.699266
0.477179 1.12282 0.8
0.477196 1.12281 0.900733
0.477328 1.12268 1.0049
0.478373 1.12163 1.12163
0.595112 0.477326 0.477325
0.594813 0.476116 0.594797
0.594754 0.475961 0.699199
0.594746 0.475941 0.8
0.59476 0.475961 0.900803
0.594861 0.476116 1.0052
0.59516 0.477326 1.12267
0.59486 0.594799 0.476116
0.594522 0.594451 0.594449
0.594454 0.59438 0.69912
0.594444 0.594369 0.8
0.594455 0.594379 0.900881
0.594528 0.59445 1.00555
0.594867 0.594797 1.12388
0.594809 0.6992 0.475961
0.594461 0.699121 0.594378
0.59439 0.699101 0.699101
0.59438 0.699098 0.8
0.594391 0.699101 0.9009
0.594462 0.69912 1.00562
0.59481 0.6992 1.12404
0.594802 0.8 0.475941
0.594453 0.8 0.594368
0.594381 0.8 0.699098
0.594371 0.8 0.8
0.594381 0.8 0.900903
0.594453 0.8 1.00563
0.594802 0.8 1.12406
0.59481 0.900801 0.475961
0.594463 0.90088 0.594378
0.594391 0.9009 0.699101
0.594381 0.900903 0.8
0.594391 0.9009 0.9009
0.594463 0.90088 1.00562
0.59481 0.900801 1.12404
0.594867 1.0052 0.476116
0.59453 1.00555 0.59445
0.594463 1.00562 0.69912
0.594453 1.00563 0.8
0.594463 1.00562 0.90088
0.59453 1.00555 1.00555
0.594867 1.0052 1.12388
0.595161 1.12267 0.477326
0.594867 1.12388 0.594797
0.59481 1.12404 0.6992
0.594802 1.12406 0.8
0.59481 1.12404 0.900801
0.594868 1.12388 1.0052
0.595161 1.12267 1.12267
0.699394 0.477212 0.477198
0.699348 0.475981 0.594739
0.699338 0.475821 0.699184
0.699341 0.475801 0.800003
0.699389 0.475821 0.900831
0.699954 0.475982 1.00527
0.699997 0.477212 1.12279
0.699949 0.594759 0.475978
0.699939 0.594405 0.594388
0.699937 0.594332 0.699104
0.699939 0.59432 0.8
0.699948 0.594329 0.9009
0.699988 0.594392 1.00561
0.7 0.594747 1.12402
0.699994 0.69919 0.475821
0.699993 0.699108 0.594316
0.699993 0.699089 0.699084
0.699993 0.699085 0.8
0.699994 0.699088 0.900917
0.7 0.699105 1.00568
0.7 0.699187 1.12418
0.7 0.8 0.475801
0.7 0.8 0.594305
0.7 0.8 0.699081
0.7 0.8 0.8
0.7 0.8 0.900919
0.7 0.8 1.0057
0.7 0.8 1.1242
0.7 0.900813 0.475821
0.7 0.900896 0.594316
0.7 0.900916 0.699084
0.7 0.900919 0.8
0.7 0.900916 0.900916
0.7 0.900896 1.00568
0.7 0.900813 1.12418
0.7 1.00525 0.475982
0.7 1.00561 0.59439
0.7 1.00568 0.699104
0.7 1.00569 0.8
0.7 1.00568 0.900896
0.7 1.00561 1.00561
0.7 1.00525 1.12402
0.7 1.12279 0.477212
0.7 1.12402 0.594747
0.7 1.12418 0.699187
0.7 1.1242 0.8
0.7 1.12418 0.900813
0.7 1.12402 1.00525
0.7 1.12279 1.12279
0.800908 0.477323 0.477216
0.80101 0.47611 0.594748
0.801033 0.475954 0.699192
0.801054 0.475935 0.800027
0.801211 0.475954 0.900929
0.804959 0.476117 1.00534
0.804832 0.477327 1.1227
0.804923 0.594893 0.476095
0.805224 0.59456 0.594441
0.805286 0.594493 0.699119
0.805299 0.594481 0.800008
0.805324 0.594477 0.900902
0.80543 0.594466 1.00557
0.805129 0.594799 1.12389
0.805179 0.699227 0.475957
0.805523 0.699153 0.594377
0.805593 0.699135 0.6991
0.805605 0.699131 0.8
0.805597 0.699129 0.900902
0.805534 0.699127 1.00563
0.805189 0.699201 1.12404
0.805197 0.800006 0.475941
0.805545 0.800008 0.594368
0.805617 0.800009 0.699098
0.805627 0.800008 0.8
0.805617 0.800006 0.900903
0.805546 0.800001 1.00563
0.805198 0.8 1.12406
0.80519 0.900802 0.475961
0.805537 0.900882 0.594378
0.805608 0.900901 0.699101
0.805619 0.900904 0.8
0.805608 0.9009 0.9009
0.805537 0.900881 1.00562
0.80519 0.900801 1.12404
0.805132 1.0052 0.476116
0.80547 1.00555 0.59445
0.805537 1.00562 0.69912
0.805547 1.00563 0.8
0.805537 1.00562 0.90088
0.80547 1.00555 1.00555
0.805132 1.0052 1.12388
0.804839 1.12267 0.477326
0.805132 1.12388 0.594797
0.80519 1.12404 0.6992
0.805198 1.12406 0.8
0.80519 1.12404 0.900801
0.805132 1.12388 1.0052
0.804839 1.12267 1.12267
0.905328 0.478053 0.47744
0.905712 0.47698 0.594848
0.905792 0.476843 0.699264
0.905879 0.476831 0.800245
0.905928 0.476842 0.901374
0.922208 0.4773 1.00573
0.921627 0.478372 1.12184
0.921942 0.595806 0.477171
0.923008 0.595611 0.594752
0.923153 0.595563 0.699201
0.923187 0.595539 0.800055
0.923266 0.595466 0.900915
0.923755 0.594913 1.00537
0.922668 0.595106 1.12272
0.922817 0.699531 0.477181
0.92405 0.699507 0.59473
0.924212 0.699497 0.699182
0.924233 0.69949 0.800007
0.924213 0.699454 0.900828
0.924036 0.699246 1.00528
0.922804 0.699271 1.12281
0.922819 0.800049 0.477174
0.924056 0.80006 0.594726
0.924218 0.800061 0.69918
0.924239 0.80006 0.8
0.924219 0.800051 0.900821
0.924057 0.800011 1.00527
0.92282 0.8 1.12282
0.922805 0.900739 0.477192
0.924038 0.900808 0.594736
0.924199 0.900823 0.699183
0.924219 0.900826 0.8
0.924199 0.900822 0.900817
0.924038 0.900803 1.00526
0.922805 0.900733 1.12281
0.922672 1.0049 0.477324
0.923882 1.0052 0.594796
0.924038 1.00526 0.699199
0.924057 1.00527 0.8
0.924038 1.00526 0.900802
0.923882 1.0052 1.0052
0.922672 1.0049 1.12268
0.921627 1.12163 0.47837
0.922672 1.12268 0.595098
0.922805 1.12281 0.699266
0.922821 1.12282 0.8
0.922805 1.12281 0.900733
0.922672 1.12268 1.0049
0.921627 1.12163 1.12163
1.0219 0.499149 0.479122
1.02299 0.498974 0.595366
1.02314 0.498954 0.699937
1.02316 0.498952 0.80437
1.02331 0.498972 0.92005
VERTICES 250 500
1 0
1 1
1 2
1 3
1 4
1 5
1 6
1 7
1 8
1 9
1 10
1 11
1 12
1 13
1 14
1 15
1 16
1 17
1 18
1 19
1 20
1 21
1 22
1 23
1 24
1 25
1 26
1 27
1 28
1 29
1 30
1 31
1 32
1 33
1 34
1 35
1 36
1 37
1 38
1 39
1 40
1 41
1 42
1 43
1 44
1 45
1 46
1 47
1 48
1 49
1 50
1 51
1 52
1 53
1 54
1 55
1 56
1 57
1 58
1 59
1 60
1 61
1 62
1 63
1 64
1 65
1 66
1 67
1 68
1 69
1 70
1 71
1 72
1 73
1 74
1 75
1 76
1 77
1 78
1 79
1 80
1 81
1 82
1 83
1 84
1 85
1 86
1 87
1 88
1 89
1 90
1 91
1 92
1 93
1 94
1 95
1 96
1 97
1 98
1 99
1 100
1 101
1 102
1 103
1 104
1 105
1 106
1 107
1 108
1 109
1 110
1 111
1 112
1 113
1 114
1 115
1 116
1 117
1 118
1 119
1 120
1 121
1 122
1 123
1 124
1 125
1 126
1 127
1 128
1 129
1 130
1 131
1 132
1 133
1 134
1 135
1 136
1 137
1 138
1 139
1 140
1 141
1 142
1 143
1 144
1 145
1 146
1 147
1 148
1 149
1 150
1 151
1 152
1 153
1 154
1 155
1 156
1 157
1 158
1 159
1 160
1 161
1 162
1 163
1 164
1 165
1 166
1 167
1 168
1 169
1 170
1 171
1 172
1 173
1 174
1 175
1 176
1 177
1 178
1 179
1 180
1 181
1 182
1 183
1 184
1 185
1 186
1 187
1 188
1 189
1 190
1 191
1 192
1 193
1 194
1 195
1 196
1 197
1 198
1 199
1 200
1 201
1 202
1 203
1 204
1 205
1 206
1 207
1 208
1 209
1 210
1 211
1 212
1 213
1 214
1 215
1 216
1 217
1 218
1 219
1 220
1 221
1 222
1 223
1 224
1 225
1 226
1 227
1 228
1 229
1 230
1 231
1 232
1 233
1 234
1 235
1 236
1 237
1 238
1 239
1 240
1 241
1 242
1 243
1 244
1 245
1 246
1 247
1 248
1 249
POINT_DATA 250
VECTORS velocity float
-0.119426 -0.11944 -0.119442
-0.12506 -0.125076 -0.0478766
-0.126242 -0.126261 -0.011315
-0.126438 -0.126457 -8.4657e-07
-0.126235 -0.126261 0.011312
-0.12503 -0.125076 0.0478797
-0.119395 -0.119441 0.119442
-0.125031 -0.0478751 -0.125077
-0.131597 -0.050383 -0.0503852
-0.132971 -0.0510642 -0.0121831
-0.133202 -0.0511935 3.62244e-06
-0.132968 -0.0510647 0.0121832
-0.131591 -0.0503846 0.0503833
-0.125024 -0.0478762 0.12508
-0.126206 -0.0113138 -0.126262
-0.132963 -0.0121832 -0.0510663
-0.1344 -0.0124243 -0.0124247
-0.134642 -0.0124685 -2.76562e-06
-0.134399 -0.0124243 0.0124231
-0.132961 -0.0121824 0.0510713
-0.126205 -0.0113142 0.126259
-0.126401 -1.10431e-06 -0.126458
-0.133193 4.10041e-06 -0.0511953
-0.13464 -2.21322e-06 -0.012469
-0.134888 -1.07299e-06 -1.71329e-06
-0.13464 -2.61822e-06 0.0124676
-0.133192 3.08196e-06 0.0511978
-0.126401 -1.59977e-06 0.126456
-0.126204 0.0113106 -0.126261
-0.132961 0.0121834 -0.0510661
-0.134398 0.012423 -0.0124249
-0.13464 0.0124677 -2.91734e-06
-0.134398 0.0124232 0.0124231
-0.13296 0.0121834 0.0510711
-0.126204 0.0113106 0.126258
-0.125024 0.0478781 -0.125077
-0.131588 0.0503823 -0.0503848
-0.132961 0.0510711 -0.0121831
-0.133192 0.0511978 2.89342e-06
-0.13296 0.0510711 0.0121833
-0.131588 0.0503822 0.0503821
-0.125024 0.0478783 0.125079
-0.119394 0.119441 -0.119441
-0.125024 0.125079 -0.0478763
-0.126204 0.126259 -0.0113143
-0.1264 0.126456 -1.69689e-06
-0.126204 0.126258 0.0113105
-0.125024 0.125079 0.0478782
-0.119395 0.119441 0.119441
-0.0476416 -0.125048 -0.125069
-0.0500985 -0.131616 -0.0503793
-0.0507648 -0.132992 -0.012181
-0.0508767 -0.133223 1.26863e-05
-0.0506495 -0.132992 0.0122056
-0.0491033 -0.131616 0.0503938
-0.0466422 -0.125049 0.125057
-0.0491104 -0.0503464 -0.131622
-0.0518137 -0.0531892 -0.0532156
-0.0525547 -0.0539753 -0.0131844
-0.0526912 -0.0541281 4.28732e-06
-0.0525256 -0.0539792 0.0131918
-0.0517005 -0.0532079 0.0532177
-0.0489993 -0.0503642 0.131617
-0.0496464 -0.0121714 -0.132993
-0.052427 -0.013176 -0.0540002
-0.0532012 -0.0134613 -0.0134707
-0.0533442 -0.0135139 3.57228e-06
-0.0531947 -0.0134638 0.0134702
-0.0524112 -0.0131808 0.0540032
-0.0496346 -0.0121772 0.132992
-0.049754 6.02177e-06 -0.133223
-0.0525503 4.56167e-06 -0.0541526
-0.0533284 5.51678e-06 -0.0135216
-0.0534772 4.58302e-06 1.23449e-06
-0.0533278 4.4733e-06 0.0135244
-0.0525492 2.24864e-06 0.0541511
-0.0497536 3.56988e-06 0.133223
-0.049634 0.0121764 -0.132992
-0.05241 0.0131857 -0.0539997
-0.0531825 0.0134688 -0.0134697
-0.053327 0.0135244 1.73858e-06
-0.0531823 0.0134692 0.013469
-0.0524098 0.0131856 0.0540016
-0.0496339 0.0121763 0.132992
-0.0489976 0.0503626 -0.131616
-0.0516736 0.0532114 -0.0532126
-0.0524097 0.0540019 -0.013183
-0.0525486 0.054151 9.42108e-07
-0.0524098 0.0540016 0.0131854
-0.0516737 0.0532112 0.0532111
-0.0489975 0.0503625 0.131615
-0.0466371 0.125053 -0.125049
-0.0489975 0.131615 -0.0503653
-0.0496337 0.132992 -0.0121769
-0.0497533 0.133223 2.75199e-06
-0.0496337 0.132992 0.0121762
-0.048998 0.131615 0.0503623
-0.0466372 0.125053 0.125053
-0.00919008 -0.126011 -0.126192
-0.00975795 -0.132737 -0.05102
-0.00990976 -0.134159 -0.0124023
-0.00989027 -0.1344 5.75243e-05
-0.00928298 -0.134159 0.0126325
-0.000545479 -0.132731 0.0511716
-4.04674e-05 -0.126009 0.126039
-0.000605642 -0.0507403 -0.132765
-0.000710723 -0.0536427 -0.0538487
-0.000734532 -0.054454 -0.0134142
-0.000723047 -0.05461 2.22634e-05
-0.000616984 -0.0544823 0.0134457
-0.000128968 -0.0537998 0.0538733
-2.28727e-05 -0.0508992 0.132742
-5.28628e-05 -0.0123258 -0.134159
-6.26212e-05 -0.0133581 -0.0546534
-6.78567e-05 -0.0136492 -0.0137045
-6.5205e-05 -0.0137093 6.7573e-06
-5.34725e-05 -0.0136602 0.0137085
-2.43756e-05 -0.0133973 0.0546551
-6.87008e-06 -0.0123649 0.134155
-1.07249e-05 1.39511e-05 -0.134395
-1.36311e-05 1.988e-05 -0.0548069
-1.48909e-05 2.20795e-05 -0.0137609
-1.2517e-05 2.07766e-05 1.10282e-06
-1.08145e-05 1.60422e-05 0.0137607
-5.104e-06 7.25758e-06 0.0548083
-2.43233e-06 6.59557e-07 0.134394
-2.85446e-06 0.0123675 -0.134154
-2.7064e-06 0.0134083 -0.0546497
-2.05305e-06 0.0137037 -0.0137034
-2.31261e-06 0.0137606 9.63065e-07
-1.32757e-06 0.0137035 0.013703
-1.1761e-06 0.0134075 0.0546491
-1.10967e-06 0.0123669 0.134152
-1.17588e-06 0.0508993 -0.13273
-7.68857e-07 0.0538328 -0.05383
-5.01928e-07 0.0546497 -0.0134087
-6.23147e-07 0.0548078 1.86253e-07
-2.40275e-07 0.0546494 0.0134079
-4.20914e-07 0.0538324 0.0538319
-8.63866e-07 0.0508991 0.132729
7.89624e-07 0.126009 -0.126009
-8.66117e-07 0.132729 -0.0509009
-8.95417e-07 0.134152 -0.0123684
3.53922e-08 0.134393 -8.67312e-07
-8.56209e-07 0.134152 0.0123666
-3.90948e-07 0.132729 0.0508989
8.2386e-07 0.126009 0.126009
0.0115095 -0.125104 -0.126084
0.0125206 -0.131713 -0.0509482
0.0128021 -0.133091 -0.0123025
0.0130242 -0.133323 0.000314986
0.0135405 -0.133097 0.0134624
0.0480556 -0.131608 0.0516873
0.0465926 -0.125046 0.125275
0.0475533 -0.0495936 -0.131788
0.0499688 -0.0523343 -0.0532905
0.0506596 -0.0530846 -0.0131909
0.0508191 -0.0532398 7.37408e-05
0.0508959 -0.0531926 0.0133562
0.0514109 -0.053093 0.0534033
0.0489782 -0.0503529 0.131678
0.0495929 -0.0119039 -0.133016
0.0523471 -0.0128548 -0.0540144
0.053114 -0.0131291 -0.0134745
0.0532635 -0.0131896 2.01001e-05
0.0531337 -0.0131852 0.0134921
0.052389 -0.0131268 0.0540281
0.0496286 -0.012169 0.133004
0.0497408 8.79962e-05 -0.133228
0.0525338 0.000102196 -0.0541555
0.0533121 0.000108455 -0.0135233
0.0534605 0.000105357 5.57784e-06
0.0533145 8.88486e-05 0.0135296
0.0525427 3.56657e-05 0.0541555
0.049752 1.13729e-05 0.133226
0.0496323 0.0121897 -0.132993
0.0524086 0.0132052 -0.054
0.0531777 0.0134896 -0.0134707
0.0533237 0.0135431 3.19373e-06
0.0531781 0.013484 0.01347
0.0524104 0.0131871 0.0540026
0.0496337 0.0121763 0.132992
0.048998 0.0503644 -0.131616
0.051673 0.0532133 -0.0532127
0.0524106 0.0540044 -0.0131833
0.0525476 0.0541539 1.07844e-06
0.0524107 0.0540032 0.0131856
0.0516732 0.0532121 0.0532112
0.048998 0.050363 0.131615
0.0466371 0.125053 -0.125049
0.048998 0.131616 -0.0503654
0.0496339 0.132992 -0.0121769
0.0497526 0.133223 2.77742e-06
0.0496339 0.132992 0.0121764
0.0489981 0.131615 0.0503623
0.0466372 0.125053 0.125053
0.0489672 -0.122088 -0.124593
0.0517796 -0.127941 -0.0499564
0.0526558 -0.129184 -0.0113021
0.0534557 -0.129328 0.0020298
0.0500843 -0.129115 0.0151529
0.124526 -0.125519 0.0509197
0.119438 -0.11942 0.1213
0.121431 -0.0455557 -0.125935
0.127075 -0.0476137 -0.0507134
0.128363 -0.0482208 -0.0121379
0.128727 -0.0484719 0.000439355
0.128936 -0.048561 0.012577
0.130863 -0.0498537 0.0513542
0.125009 -0.0478357 0.125465
0.126461 -0.00908015 -0.12632
0.133256 -0.0096165 -0.0511192
0.134696 -0.00980922 -0.012429
0.134942 -0.0098904 4.0492e-05
0.134672 -0.0101204 0.0125053
0.132979 -0.0118244 0.0511519
0.1262 -0.0112837 0.126301
0.126392 0.000707074 -0.126476
0.133182 0.000839706 -0.0512084
0.13463 0.000858452 -0.0124727
0.134877 0.000844951 1.03147e-05
0.134632 0.00072777 0.012489
0.13319 0.000147654 0.0512213
0.1264 2.21484e-05 0.126463
0.126204 0.0114124 -0.126264
0.13296 0.012313 -0.0510684
0.134396 0.0125561 -0.0124257
0.13464 0.0125991 -8.27781e-07
0.134396 0.0125299 0.0124262
0.13296 0.0122096 0.051075
0.126204 0.0113116 0.126259
0.125023 0.0478875 -0.125077
0.131587 0.0503935 -0.050385
0.132961 0.0510843 -0.0121831
0.133192 0.051209 3.56382e-06
0.132961 0.0510809 0.0121831
0.131587 0.0503853 0.0503829
0.125024 0.0478783 0.12508
0.119394 0.119442 -0.119441
0.125024 0.12508 -0.0478764
0.126204 0.126259 -0.0113143
0.126401 0.126457 -1.65205e-06
0.126204 0.126259 0.0113108
0.125024 0.12508 0.0478779
0.119394 0.119442 0.119442
0.121515 -0.00398233 -0.115976
0.127563 -0.00505026 -0.0451893
0.128844 -0.00521294 -0.000756978
0.129088 -0.00523352 0.0432168
0.130431 -0.00491316 0.111835
VECTORS force float
-0.178567 -0.178729 -0.17875
-0.185703 -0.185898 -0.247434
-0.191446 -0.191662 -0.124409
-0.19306 -0.193293 -1.26055e-05
-0.191355 -0.191663 0.124438
-0.185161 -0.185904 0.247456
-0.177995 -0.178733 0.178741
-0.185164 -0.247403 -0.18591
-0.193762 -0.255873 -0.255898
-0.200321 -0.260656 -0.131554
-0.202181 -0.262057 3.60878e-05
-0.200294 -0.260661 0.131507
-0.193676 -0.255891 0.25593
-0.185069 -0.247422 0.185907
-0.190797 -0.124406 -0.191669
-0.200215 -0.131547 -0.260683
-0.207218 -0.13426 -0.134266
-0.209177 -0.134962 -1.77057e-05
-0.20721 -0.134258 0.13429
-0.200202 -0.131547 0.260676
-0.190783 -0.12441 0.191673
-0.192402 -1.92298e-05 -0.193299
-0.202061 3.55937e-05 -0.262081
-0.209159 -1.36163e-05 -0.134971
-0.211179 -7.45105e-06 -1.22301e-05
-0.209159 -1.68204e-05 0.134985
-0.202058 2.92016e-05 0.262065
-0.1924 -2.54724e-05 0.193296
-0.190782 0.124425 -0.191667
-0.200197 0.131507 -0.260681
-0.207196 0.134289 -0.134265
-0.209157 0.134985 -1.87444e-05
-0.207196 0.134289 0.134289
-0.200197 0.131507 0.260673
-0.190782 0.124432 0.191673
-0.185066 0.247424 -0.185904
-0.193648 0.255919 -0.255896
-0.200197 0.260675 -0.131551
-0.202057 0.262065 2.84394e-05
-0.200196 0.260673 0.131506
-0.193648 0.255918 0.255918
-0.185067 0.247417 0.185905
-0.177988 0.178735 -0.178733
-0.185066 0.185904 -0.247423
-0.190782 0.191672 -0.12441
-0.192399 0.193295 -2.61675e-05
-0.190782 0.191673 0.124432
-0.185066 0.185905 0.247417
-0.177988 0.178737 0.178737
-0.243708 -0.185538 -0.185821
-0.251555 -0.194164 -0.255836
-0.256121 -0.200751 -0.131512
-0.257335 -0.20261 0.000152495
-0.254575 -0.20075 0.131862
-0.235466 -0.194182 0.256106
-0.227519 -0.185558 0.185609
-0.235513 -0.25535 -0.194241
-0.243039 -0.264587 -0.264921
-0.247707 -0.269931 -0.139408
-0.249086 -0.271514 5.88989e-05
-0.247396 -0.269981 0.139452
-0.241687 -0.264829 0.264964
-0.234108 -0.255598 0.194197
-0.238376 -0.131375 -0.200781
-0.246155 -0.139306 -0.27025
-0.251014 -0.142379 -0.14249
-0.252485 -0.143201 2.64676e-05
-0.25097 -0.142404 0.142469
-0.245962 -0.139374 0.270275
-0.238205 -0.131438 0.200769
-0.239452 6.13849e-05 -0.202632
-0.247366 5.68011e-05 -0.271834
-0.252281 4.94402e-05 -0.143291
-0.253789 5.75476e-05 1.84329e-05
-0.25228 4.16776e-05 0.143277
-0.247362 3.21136e-05 0.271846
-0.239448 2.77309e-05 0.202634
-0.238203 0.131387 -0.20077
-0.245951 0.139385 -0.270246
-0.2508 0.142452 -0.142482
-0.252273 0.143277 1.52348e-05
-0.250799 0.142455 0.142454
-0.245951 0.139385 0.270263
-0.238202 0.131386 0.200764
-0.234099 0.255642 -0.194181
-0.241353 0.264885 -0.264888
-0.245953 0.270265 -0.139391
-0.24736 0.271844 1.99423e-05
-0.245952 0.270262 0.139384
-0.241352 0.264883 0.264883
-0.234099 0.255644 0.194184
-0.227417 0.185556 -0.185558
-0.234099 0.194184 -0.255606
-0.238203 0.200764 -0.131437
-0.239449 0.202634 2.37402e-05
-0.238202 0.200764 0.131386
-0.234101 0.194184 0.255642
-0.227418 0.185555 0.185555
-0.0954505 -0.189403 -0.191046
-0.0994147 -0.198628 -0.260165
-0.10106 -0.205494 -0.13386
-0.101074 -0.207437 0.000606422
-0.0968464 -0.20549 0.136278
-0.00325793 -0.198534 0.261607
-0.000148991 -0.189362 0.189642
-0.00417318 -0.25733 -0.198792
-0.00483058 -0.266787 -0.268513
-0.00499638 -0.272247 -0.141626
-0.00496908 -0.273883 0.000211142
-0.00430547 -0.272455 0.141809
-0.000712467 -0.268145 0.268707
-0.000136827 -0.258699 0.198612
-0.000113526 -0.132962 -0.205439
-0.000181165 -0.14111 -0.273928
-0.000217304 -0.144291 -0.144774
-0.000200393 -0.145142 6.1588e-05
-0.000150067 -0.144368 0.144763
-0.000126486 -0.141462 0.27396
-4.16508e-05 -0.133343 0.205415
-6.50965e-05 0.000141831 -0.207362
-8.61413e-05 0.000203234 -0.27556
-9.20899e-05 0.00023436 -0.145601
-8.36431e-05 0.000219167 9.16773e-06
-7.19655e-05 0.000176465 0.145596
-3.75625e-05 5.72525e-05 0.275564
-1.56933e-05 1.15863e-05 0.20735
-2.02949e-05 0.13335 -0.20541
-2.11676e-05 0.141539 -0.273908
-2.90312e-05 0.144735 -0.144755
-2.69758e-05 0.145593 1.14044e-05
-2.12302e-05 0.144739 0.144733
-6.54454e-06 0.141541 0.273925
-6.2358e-06 0.133349 0.2054
-6.97009e-06 0.258717 -0.198535
-6.97689e-06 0.268368 -0.268353
-2.92375e-06 0.273927 -0.141551
-7.11557e-06 0.275561 1.21489e-06
-5.48578e-07 0.273924 0.141541
-5.41721e-06 0.268364 0.268364
-5.50052e-06 0.258715 0.19853
2.98341e-06 0.189359 -0.189365
-5.54494e-06 0.198531 -0.258711
-5.52336e-06 0.205401 -0.133353
-2.41761e-06 0.207347 -4.10033e-06
-5.22638e-06 0.205401 0.133347
-3.58612e-06 0.198531 0.258715
3.16725e-06 0.189359 0.18936
0.100384 -0.185901 -0.190953
0.105805 -0.194927 -0.259846
0.108214 -0.201525 -0.132984
0.109734 -0.203392 0.00268295
0.0968732 -0.201638 0.139026
0.238769 -0.194103 0.262419
0.227441 -0.185535 0.187038
0.232225 -0.253339 -0.194852
0.238744 -0.262354 -0.26528
0.243174 -0.26751 -0.139366
0.244571 -0.269054 0.000346758
0.243302 -0.26761 0.140013
0.241036 -0.264617 0.265668
0.234103 -0.25557 0.194494
0.238569 -0.129751 -0.200847
0.246347 -0.137426 -0.270308
0.251197 -0.14043 -0.142536
0.252669 -0.141235 0.000126041
0.251137 -0.140691 0.142549
0.246011 -0.139147 0.270336
0.238203 -0.131419 0.200821
0.23938 0.000783226 -0.202658
0.247282 0.000870624 -0.271857
0.252193 0.000906968 -0.143301
0.253696 0.000897429 4.91908e-05
0.252204 0.000791088 0.143319
0.247345 0.000237031 0.271868
0.239452 9.03935e-05 0.202653
0.238189 0.131601 -0.200775
0.245929 0.139681 -0.270251
0.250767 0.142779 -0.142488
0.252247 0.143578 2.51549e-05
0.250772 0.142691 0.142466
0.24595 0.139439 0.270269
0.23821 0.131389 0.200766
0.234099 0.255664 -0.194183
0.241353 0.264911 -0.264888
0.245954 0.270293 -0.139393
0.247361 0.271876 2.08911e-05
0.245954 0.270284 0.139386
0.241355 0.26489 0.264884
0.234102 0.255641 0.194184
0.227413 0.18556 -0.185558
0.234102 0.194188 -0.255606
0.238211 0.200768 -0.131437
0.239452 0.202638 2.39347e-05
0.238211 0.200766 0.131389
0.234102 0.194184 0.255639
0.227413 0.185557 0.185556
0.249901 -0.186897 -0.185947
0.258569 -0.194691 -0.253562
0.264703 -0.200834 -0.123388
0.269097 -0.201999 0.00658887
0.233965 -0.198866 0.146129
0.20124 -0.191902 0.228918
0.178168 -0.178597 0.186891
0.174985 -0.255356 -0.187655
0.180044 -0.263825 -0.25672
0.186052 -0.268498 -0.130825
0.188741 -0.270467 0.00100828
0.187799 -0.26838 0.129604
0.190804 -0.25525 0.258321
0.18506 -0.247328 0.187618
0.193161 -0.11855 -0.19167
0.203075 -0.124962 -0.260889
0.21015 -0.127556 -0.134232
0.21211 -0.1284 -6.467e-05
0.20981 -0.127825 0.134647
0.200499 -0.130781 0.26085
0.190777 -0.124372 0.191795
0.192306 0.00723054 -0.193435
0.201953 0.0083896 -0.262204
0.209062 0.00857828 -0.135036
0.211071 0.00850625 9.9379e-05
0.209065 0.0074892 0.135166
0.202048 0.00117969 0.2623
0.192396 0.000191993 0.193331
0.190785 0.126099 -0.191697
0.200205 0.133579 -0.260709
0.207188 0.136422 -0.134281
0.209167 0.137069 -8.21622e-08
0.207187 0.136061 0.134339
0.200202 0.131912 0.260719
0.19078 0.124419 0.191678
0.185065 0.247583 -0.185907
0.193643 0.2561 -0.255897
0.2002 0.260874 -0.131555
0.202051 0.262268 3.53827e-05
0.200201 0.260831 0.131505
0.193642 0.255961 0.255927
0.185065 0.247428 0.185906
0.17799 0.178742 -0.178733
0.185064 0.185914 -0.247424
0.19078 0.191679 -0.12441
0.192396 0.193303 -2.58866e-05
0.19078 0.191676 0.124428
0.185065 0.185907 0.247423
0.17799 0.178737 0.178736
0.183408 -0.00523523 -0.178597
0.192746 -0.00846687 -0.22654
0.19929 -0.00936655 -0.00551161
0.200915 -0.00953451 0.2214
0.20784 -0.00528166 0.168644
SCALARS mass float 1
LOOKUP_TABLE default
1
1
1
1
1
1
1
1
1
1
1
1
1
1
1
1
1
1
1
1
1
1
1
1
1
1
1
1
1
1
1
1
1
1
1
1
1
1
1
1
1
1
1
1
1
1
1
1
1
1
1
1
1
1
1
1
1
1
1
1
1
1
1
1
1
1
1
1
1
1
1
1
1
1
1
1
1
1
1
1
1
1
1
1
1
1
1
1
1
1
1
1
1
1
1
1
1
1
1
1
1
1
1
1
1
1
1
1
1
1
1
1
1
1
1
1
1
1
1
1
1
1
1
1
1
1
1
1
1
1
1
1
1
1
1
1
1
1
1
1
1
1
1
1
1
1
1
1
1
1
1
1
1
1
1
1
1
1
1
1
1
1
1
1
1
1
1
1
1
1
1
1
1
1
1
1
1
1
1
1
1
1
1
1
1
1
1
1
1
1
1
1
1
1
1
1
1
1
1
1
1
1
1
1
1
1
1
1
1
1
1
1
1
1
1
1
1
1
1
1
1
1
1
1
1
1
1
1
1
1
1
1
1
1
1
1
1
1
1
1
1
1
1
1
1
1
1
1
1
1
