# vtk DataFile Version 3.0
Molecular Dynamics Particle Data
ASCII
DATASET POLYDATA
POINTS 250 float
0.374382 0.374053 0.374025
0.368892 0.368551 0.526072
0.367104 0.366742 0.663983
0.366663 0.366289 0.800009
0.367181 0.36674 0.936044
0.369687 0.368532 1.07395
0.375256 0.374033 1.22597
0.369683 0.526107 0.368525
0.36322 0.523454 0.523428
0.361193 0.522282 0.662745
0.360698 0.521927 0.8
0.36121 0.522278 0.937258
0.363285 0.523435 1.07658
0.369754 0.526086 1.23147
0.367991 0.663996 0.366718
0.361272 0.662753 0.522256
0.359126 0.662181 0.662173
0.358611 0.662 0.8
0.359129 0.662179 0.93783
0.361278 0.662748 1.07774
0.367998 0.66399 1.23328
0.367564 0.8 0.366266
0.360784 0.8 0.521903
0.35862 0.8 0.661992
0.358081 0.8 0.8
0.35862 0.8 0.938008
0.360785 0.8 1.0781
0.367564 0.8 1.23373
0.367999 0.936011 0.36672
0.361281 0.937253 0.522257
0.359137 0.937829 0.662173
0.35862 0.938008 0.8
0.359137 0.937829 0.937829
0.361281 0.937253 1.07774
0.367999 0.936011 1.23328
0.369756 1.07391 0.368529
0.363302 1.07657 0.523431
0.361281 1.07774 0.662746
0.360785 1.0781 0.8
0.361281 1.07774 0.937253
0.363302 1.07657 1.07657
0.369756 1.07391 1.23147
0.375261 1.22597 0.374033
0.369756 1.23147 0.526085
0.367999 1.23328 0.66399
0.367565 1.23373 0.8
0.367999 1.23328 0.936011
0.369756 1.23147 1.07391
0.375261 1.22597 1.22597
0.53024 0.368767 0.368589
0.527818 0.362341 0.52348
0.526767 0.360281 0.662796
0.526487 0.359773 0.800076
0.526916 0.360282 0.937456
0.536237 0.362311 1.07668
0.538664 0.368733 1.23131
0.536007 0.523726 0.36228
0.533382 0.520794 0.520631
0.532319 0.519491 0.661458
0.532025 0.5191 0.80001
0.532395 0.519472 0.938571
0.533792 0.520666 1.07939
0.536407 0.523594 1.2377
0.535476 0.662873 0.360241
0.532798 0.661513 0.519331
0.531692 0.660883 0.660827
0.531384 0.660684 0.8
0.531698 0.660874 0.939176
0.53282 0.661469 1.08067
0.5355 0.66283 1.23976
0.535237 0.800021 0.359736
0.532527 0.800027 0.51894
0.531411 0.800027 0.660629
0.531094 0.800028 0.8
0.531414 0.800024 0.939371
0.53253 0.8 1.08106
0.535237 0.8 1.24026
0.5355 0.937175 0.360245
0.532825 0.938547 0.519334
0.531723 0.939179 0.660828
0.531414 0.939378 0.8
0.531723 0.939176 0.939172
0.532826 0.93854 1.08067
0.535501 0.93717 1.23976
0.536418 1.07641 0.362308
0.533869 1.07936 0.520644
0.532826 1.08067 0.66146
0.53253 1.08106 0.8
0.532826 1.08067 0.93854
0.53387 1.07936 1.07936
0.536418 1.07641 1.23769
0.538691 1.23127 0.368732
0.536418 1.23769 0.523592
0.535501 1.23976 0.662829
0.535238 1.24026 0.8
0.535501 1.23975 0.93717
0.536418 1.23769 1.07641
0.538691 1.23127 1.23127
0.677355 0.367635 0.367019
0.676782 0.361003 0.522525
0.676509 0.358874 0.662413
0.676582 0.358349 0.80029
0.675313 0.358872 0.938503
0.700371 0.361002 1.07772
0.699962 0.367602 1.23255
0.699201 0.523245 0.360919
0.699016 0.520258 0.519866
0.698977 0.518931 0.661117
0.698981 0.51853 0.80004
0.699107 0.5189 0.938974
0.699865 0.519948 1.0802
0.699985 0.522941 1.23903
0.70001 0.662669 0.358857
0.699999 0.661285 0.518545
0.699993 0.660646 0.660456
0.699996 0.660442 0.8
0.700001 0.660622 0.939547
0.699993 0.661137 1.08146
0.7 0.662518 1.24114
0.699976 0.800061 0.358334
0.699969 0.800072 0.518143
0.699968 0.800077 0.660254
0.69997 0.800076 0.8
0.699978 0.800065 0.939747
0.7 0.800012 1.08186
0.7 0.8 1.24166
0.7 0.937508 0.358865
0.7 0.938919 0.518551
0.7 0.939572 0.66046
0.7 0.939775 0.8
0.7 0.939565 0.939541
0.7 0.938896 1.08145
0.7 0.937484 1.24113
0.7 1.07707 0.360998
0.7 1.08011 0.519902
0.7 1.08146 0.661111
0.7 1.08186 0.8
0.7 1.08145 0.938891
0.7 1.0801 1.0801
0.7 1.07706 1.239
0.7 1.2324 0.367599
0.7 1.239 0.522936
0.7 1.24113 0.662517
0.7 1.24166 0.8
0.7 1.24113 0.937484
0.7 1.239 1.07706
0.7 1.2324 1.2324
0.824827 0.369065 0.367101
0.825954 0.362501 0.522688
0.826483 0.360449 0.662782
0.827221 0.359943 0.80096
0.822575 0.360408 0.939773
0.865157 0.362334 1.0771
0.861265 0.368742 1.23178
0.8618 0.523978 0.362074
0.863958 0.521137 0.520554
0.864921 0.519858 0.661482
0.865263 0.519472 0.800111
0.865241 0.519855 0.938722
0.865773 0.520719 1.0796
0.863552 0.523607 1.23781
0.86461 0.663263 0.36022
0.867284 0.661965 0.519316
0.868385 0.661359 0.660827
0.868702 0.661161 0.800015
0.86839 0.661304 0.939199
0.867163 0.661537 1.0807
0.864495 0.662839 1.23977
0.86473 0.800256 0.359726
0.867431 0.800302 0.518931
0.868547 0.800314 0.660625
0.868863 0.800314 0.800007
0.868553 0.800274 0.939382
0.867462 0.800043 1.08107
0.864761 0.800003 1.24027
0.864489 0.937301 0.360242
0.86716 0.938693 0.519331
0.868258 0.939332 0.660826
0.868569 0.939529 0.8
0.868261 0.939306 0.939177
0.867172 0.938572 1.08067
0.864499 0.937174 1.23976
0.863577 1.07645 0.362307
0.866125 1.0794 0.520644
0.86717 1.08071 0.66146
0.867464 1.08111 0.8
0.867171 1.0807 0.938541
0.866129 1.07937 1.07936
0.863581 1.07641 1.23769
0.861308 1.23127 0.368732
0.863581 1.2377 0.523592
0.864499 1.23976 0.662829
0.864762 1.24027 0.8
0.864499 1.23976 0.93717
0.863581 1.23769 1.07641
0.861308 1.23127 1.23127
0.975411 0.372021 0.369214
0.978399 0.366322 0.524742
0.979884 0.364455 0.664961
0.981719 0.364092 0.80345
0.972881 0.365247 0.942581
1.03208 0.365528 1.07187
1.02474 0.374081 1.22803
1.01562 0.532038 0.366845
1.02049 0.529875 0.522695
1.02268 0.528524 0.661849
1.02445 0.527433 0.798912
1.0266 0.526202 0.93701
1.03233 0.525441 1.07928
1.03023 0.526126 1.23218
1.03304 0.666049 0.366714
1.03994 0.665095 0.522216
1.04212 0.664557 0.66217
1.04261 0.664265 0.800052
1.04195 0.664127 0.937915
1.03882 0.663288 1.07779
1.032 0.664034 1.23332
1.03233 0.801424 0.366212
1.0391 0.801654 0.521863
1.04126 0.80169 0.661986
1.0418 0.80166 0.800028
1.04127 0.801511 0.938071
1.0392 0.80024 1.07817
1.03243 0.80003 1.23375
1.03201 0.936963 0.366701
1.03873 0.938353 0.522239
1.04086 0.93895 0.662165
1.04139 0.939119 0.800014
1.04086 0.938819 0.937857
1.03872 0.937406 1.07777
1.032 0.936029 1.23328
1.03024 1.07422 0.368525
1.03669 1.07692 0.523427
1.03872 1.0781 0.662744
1.03921 1.07845 0.8
1.03872 1.07805 0.937261
1.0367 1.07663 1.07658
1.03024 1.07392 1.23147
1.02474 1.22599 0.374033
1.03024 1.2315 0.526085
1.032 1.2333 0.66399
1.03243 1.23376 0.8
1.032 1.2333 0.936012
1.03024 1.23148 1.07391
1.02474 1.22597 1.22597
1.13484 0.488944 0.378097
1.14139 0.487371 0.539544
1.14323 0.487088 0.699462
1.14275 0.487402 0.858826
1.14549 0.491203 1.01583
VERTICES 250 500
1 0
1 1
1 2
1 3
1 4
1 5
1 6
1 7
1 8
1 9
1 10
1 11
1 12
1 13
1 14
1 15
1 16
1 17
1 18
1 19
1 20
1 21
1 22
1 23
1 24
1 25
1 26
1 27
1 28
1 29
1 30
1 31
1 32
1 33
1 34
1 35
1 36
1 37
1 38
1 39
1 40
1 41
1 42
1 43
1 44
1 45
1 46
1 47
1 48
1 49
1 50
1 51
1 52
1 53
1 54
1 55
1 56
1 57
1 58
1 59
1 60
1 61
1 62
1 63
1 64
1 65
1 66
1 67
1 68
1 69
1 70
1 71
1 72
1 73
1 74
1 75
1 76
1 77
1 78
1 79
1 80
1 81
1 82
1 83
1 84
1 85
1 86
1 87
1 88
1 89
1 90
1 91
1 92
1 93
1 94
1 95
1 96
1 97
1 98
1 99
1 100
1 101
1 102
1 103
1 104
1 105
1 106
1 107
1 108
1 109
1 110
1 111
1 112
1 113
1 114
1 115
1 116
1 117
1 118
1 119
1 120
1 121
1 122
1 123
1 124
1 125
1 126
1 127
1 128
1 129
1 130
1 131
1 132
1 133
1 134
1 135
1 136
1 137
1 138
1 139
1 140
1 141
1 142
1 143
1 144
1 145
1 146
1 147
1 148
1 149
1 150
1 151
1 152
1 153
1 154
1 155
1 156
1 157
1 158
1 159
1 160
1 161
1 162
1 163
1 164
1 165
1 166
1 167
1 168
1 169
1 170
1 171
1 172
1 173
1 174
1 175
1 176
1 177
1 178
1 179
1 180
1 181
1 182
1 183
1 184
1 185
1 186
1 187
1 188
1 189
1 190
1 191
1 192
1 193
1 194
1 195
1 196
1 197
1 198
1 199
1 200
1 201
1 202
1 203
1 204
1 205
1 206
1 207
1 208
1 209
1 210
1 211
1 212
1 213
1 214
1 215
1 216
1 217
1 218
1 219
1 220
1 221
1 222
1 223
1 224
1 225
1 226
1 227
1 228
1 229
1 230
1 231
1 232
1 233
1 234
1 235
1 236
1 237
1 238
1 239
1 240
1 241
1 242
1 243
1 244
1 245
1 246
1 247
1 248
1 249
POINT_DATA 250
VECTORS velocity float
-0.162029 -0.16343 -0.163531
-0.168382 -0.169778 -0.123063
-0.171227 -0.172681 -0.0673974
-0.171974 -0.173465 3.99403e-05
-0.171024 -0.172686 0.0674934
-0.165586 -0.169858 0.123157
-0.158923 -0.163513 0.163535
-0.165614 -0.122955 -0.169877
-0.173309 -0.12636 -0.126446
-0.176501 -0.128166 -0.0690689
-0.177324 -0.128739 1.52001e-05
-0.176457 -0.128179 0.0690837
-0.173123 -0.126426 0.126455
-0.165409 -0.123029 0.169874
-0.168194 -0.0673604 -0.172775
-0.176277 -0.0690424 -0.12825
-0.179664 -0.0699264 -0.0699539
-0.180517 -0.070218 -1.70565e-06
-0.179658 -0.0699316 0.0699586
-0.176261 -0.0690629 0.128252
-0.168176 -0.0673801 0.172773
-0.168905 2.20415e-06 -0.173558
-0.177083 1.65073e-05 -0.128822
-0.180495 1.07646e-05 -0.070244
-0.181396 1.16513e-05 -1.91929e-06
-0.180495 7.20811e-06 0.0702432
-0.177081 8.98362e-06 0.128821
-0.168904 -8.35695e-06 0.173558
-0.168176 0.067385 -0.172773
-0.176257 0.0690679 -0.128249
-0.17964 0.0699557 -0.0699533
-0.180495 0.0702431 -3.79178e-06
-0.17964 0.0699555 0.0699554
-0.176256 0.0690675 0.128249
-0.168175 0.0673844 0.172772
-0.165404 0.12303 -0.169865
-0.173079 0.126438 -0.12644
-0.176256 0.128249 -0.0690668
-0.177081 0.12882 3.50763e-06
-0.176256 0.128249 0.0690678
-0.173078 0.126439 0.126438
-0.165404 0.123031 0.169868
-0.158906 0.163515 -0.163514
-0.165403 0.169868 -0.12303
-0.168175 0.172772 -0.0673807
-0.168903 0.173557 -9.86433e-06
-0.168175 0.172771 0.0673847
-0.165403 0.169868 0.123031
-0.158906 0.163515 0.163515
-0.11019 -0.16917 -0.169677
-0.113195 -0.176625 -0.126304
-0.114771 -0.179903 -0.0689303
-0.115195 -0.180767 0.000211428
-0.115358 -0.179896 0.0696442
-0.0928036 -0.176712 0.126688
-0.0900518 -0.169273 0.169406
-0.0936717 -0.125717 -0.176788
-0.097091 -0.129392 -0.129782
-0.0986993 -0.131374 -0.0706981
-0.0991657 -0.132001 2.96554e-05
-0.0985792 -0.131412 0.0707794
-0.0963296 -0.129708 0.129832
-0.0929699 -0.126039 0.176741
-0.0943414 -0.0687469 -0.180013
-0.0977957 -0.070548 -0.131761
-0.0994672 -0.0715104 -0.0716757
-0.0999475 -0.0718258 1.24875e-05
-0.0994635 -0.0715347 0.0716828
-0.0977844 -0.0706841 0.131763
-0.0943326 -0.0688827 0.18001
-0.0947464 3.0979e-05 -0.180872
-0.0982516 3.90825e-05 -0.132387
-0.0999384 3.92431e-05 -0.0719929
-0.100436 3.82555e-05 8.07133e-06
-0.0999281 3.76001e-05 0.0719934
-0.098242 2.70427e-05 0.132386
-0.0947443 3.53408e-06 0.180871
-0.094334 0.0689103 -0.180005
-0.0977797 0.0707318 -0.131755
-0.0994467 0.0717038 -0.0716741
-0.0999285 0.0720226 2.2088e-06
-0.0994456 0.0716958 0.0716755
-0.0977778 0.0707033 0.131755
-0.0943321 0.0688866 0.180004
-0.0929488 0.126047 -0.17672
-0.0962067 0.129756 -0.129752
-0.0977782 0.131758 -0.0707049
-0.0982415 0.132389 6.41409e-06
-0.0977779 0.131756 0.0707026
-0.0962064 0.129753 0.129752
-0.0929484 0.126045 0.176719
-0.0900062 0.16928 -0.169276
-0.0929486 0.17672 -0.126044
-0.0943324 0.180004 -0.0688865
-0.0947441 0.180871 -5.68406e-07
-0.0943323 0.180004 0.0688863
-0.0929485 0.176719 0.126045
-0.0900062 0.169279 0.169279
-0.0387138 -0.170465 -0.171998
-0.0393902 -0.178244 -0.127596
-0.0397805 -0.181623 -0.0693731
-0.0394509 -0.182508 0.000724175
-0.0450985 -0.181619 0.0718477
0.00255405 -0.178416 0.127462
-3.3672e-05 -0.170731 0.171149
-0.000990811 -0.126502 -0.178562
-0.00135052 -0.13022 -0.130711
-0.00141221 -0.132242 -0.0711369
-0.00141489 -0.132882 4.07583e-05
-0.0012681 -0.132251 0.0712995
-0.000186495 -0.130608 0.130845
-3.04495e-05 -0.126844 0.178491
0.000122684 -0.0689506 -0.181824
0.000113455 -0.0707751 -0.132736
0.000103056 -0.0717479 -0.0721677
0.000108533 -0.0720676 2.75908e-05
0.000103506 -0.0717867 0.0721709
-9.77307e-06 -0.0711077 0.132737
-1.57559e-05 -0.0692962 0.181816
-3.91524e-05 0.000157598 -0.182711
-3.99039e-05 0.000178683 -0.133376
-4.04709e-05 0.000189988 -0.072487
-4.29266e-05 0.000189716 5.37549e-06
-3.72859e-05 0.000162501 0.0724923
-1.61695e-05 2.80684e-05 0.133377
-8.11811e-06 1.18054e-05 0.182704
-1.83474e-05 0.0693678 -0.181811
-1.79417e-05 0.0712456 -0.132725
-2.16845e-05 0.072246 -0.0721613
-2.13588e-05 0.0725688 4.09633e-06
-2.04542e-05 0.072231 0.0721644
-6.84364e-06 0.0711847 0.132724
-2.4553e-06 0.0692991 0.181808
-6.79542e-06 0.126874 -0.178423
-8.18651e-06 0.130692 -0.130669
-6.67422e-06 0.132749 -0.0711638
-8.20412e-06 0.133396 1.54514e-06
-4.49799e-06 0.132742 0.0711659
-3.1623e-06 0.130671 0.130669
-1.71694e-06 0.126854 0.178422
3.92866e-07 0.170743 -0.170742
-1.99044e-06 0.178424 -0.126856
-1.92571e-06 0.181809 -0.0692987
-1.39906e-06 0.182703 -3.22673e-06
-1.51704e-06 0.181809 0.0692991
-1.37257e-06 0.178422 0.126854
1.08796e-06 0.170741 0.170741
0.0418475 -0.167844 -0.171906
0.0433988 -0.175628 -0.127205
0.0442481 -0.178877 -0.0685724
0.0460659 -0.179738 0.00207884
0.0334632 -0.178889 0.0744599
0.0983613 -0.176694 0.124775
0.0899253 -0.169254 0.170255
0.089043 -0.126453 -0.177105
0.0916329 -0.130006 -0.129868
0.093089 -0.131981 -0.0706436
0.0937695 -0.132585 0.00018294
0.0939411 -0.131814 0.0709651
0.095356 -0.129735 0.130119
0.0928919 -0.126023 0.17694
0.0946711 -0.0682062 -0.180037
0.0981348 -0.069902 -0.131774
0.0998052 -0.0708244 -0.0716747
0.100313 -0.0711438 3.31732e-05
0.0998245 -0.0708931 0.0717107
0.0977575 -0.0705916 0.131795
0.0943235 -0.0688643 0.180033
0.0946662 0.000502916 -0.180893
0.0981502 0.000582954 -0.132403
0.0998352 0.000608693 -0.0719976
0.100334 0.000613882 2.81043e-05
0.0998514 0.000550604 0.0720137
0.0982278 7.4868e-05 0.132411
0.0947421 2.81844e-05 0.180882
0.0943034 0.0692003 -0.180014
0.0977432 0.0710636 -0.131763
0.0994002 0.0720468 -0.0716766
0.0998896 0.0723622 1.36994e-05
0.0994071 0.0719982 0.0716871
0.0977722 0.0707604 0.131769
0.0943321 0.0688959 0.180007
0.0929334 0.126177 -0.176724
0.0961894 0.129901 -0.129755
0.0977627 0.131914 -0.0707058
0.0982227 0.13254 1.06826e-05
0.0977655 0.131883 0.0707069
0.0962014 0.129787 0.129757
0.0929466 0.126047 0.176721
0.090003 0.169292 -0.169277
0.0929449 0.176735 -0.126044
0.0943309 0.180019 -0.0688865
0.0947412 0.180886 4.30004e-07
0.0943315 0.180015 0.0688868
0.0929466 0.176724 0.126046
0.090005 0.16928 0.169279
0.12288 -0.164135 -0.16852
0.12667 -0.170776 -0.123416
0.128915 -0.173742 -0.0648977
0.13265 -0.174462 0.00663026
0.11331 -0.171845 0.0770567
0.172611 -0.176677 0.11387
0.158865 -0.163415 0.165573
0.118951 -0.107102 -0.17431
0.124749 -0.110363 -0.129388
0.130553 -0.113652 -0.0741746
0.137039 -0.116899 -0.00528444
0.143731 -0.120496 0.0683239
0.155954 -0.120471 0.135136
0.165419 -0.123006 0.171458
0.1712 -0.0631633 -0.172694
0.179753 -0.0645627 -0.128277
0.183191 -0.0654906 -0.0699356
0.183896 -0.0661948 0.000137323
0.182522 -0.0668394 0.0700841
0.176584 -0.0675269 0.128221
0.168164 -0.0672936 0.172815
0.168589 0.00214191 -0.173679
0.176716 0.00248492 -0.128892
0.180126 0.00254776 -0.0702397
0.181019 0.00245282 3.37584e-05
0.180163 0.00226271 0.0703583
0.177049 0.000390709 0.128957
0.1689 4.3583e-05 0.173604
0.168201 0.069375 -0.172824
0.17629 0.0713474 -0.128295
0.179661 0.0722771 -0.0699665
0.180533 0.0725403 3.61032e-05
0.179656 0.072067 0.070025
0.176263 0.069337 0.128324
0.168176 0.0674179 0.172789
0.165395 0.12407 -0.169877
0.173067 0.127613 -0.126452
0.17625 0.129442 -0.0690698
0.177066 0.130004 1.99917e-05
0.17625 0.129287 0.069093
0.173075 0.126613 0.126468
0.165403 0.123052 0.169875
0.158904 0.163613 -0.163514
0.1654 0.169972 -0.123032
0.168173 0.172878 -0.0673812
0.168898 0.173662 -8.84252e-06
0.168174 0.172858 0.0673882
0.165402 0.169889 0.123035
0.158907 0.163518 0.163516
0.19648 -0.0294336 -0.155533
0.204375 -0.0314311 -0.0883111
0.205574 -0.0310962 0.00168404
0.202307 -0.0295269 0.0884714
0.207544 -0.0194826 0.146383
VECTORS force float
-0.0167805 -0.0204596 -0.0206431
-0.0162768 -0.0197033 -0.0243901
-0.0164235 -0.019874 -0.00528196
-0.016302 -0.0197779 3.61639e-05
-0.0163674 -0.0198774 0.00547884
-0.0115597 -0.0198763 0.0245642
-0.0114136 -0.0206437 0.020688
-0.0116691 -0.0242316 -0.0199051
-0.0117856 -0.024054 -0.0241944
-0.0120313 -0.0238048 -0.0053516
-0.0119095 -0.0235742 1.24309e-05
-0.0119998 -0.0238204 0.00537405
-0.011599 -0.024174 0.0242112
-0.0114689 -0.0243713 0.0198945
-0.0116441 -0.00526716 -0.0200649
-0.0118123 -0.00530576 -0.0239448
-0.0120858 -0.00529631 -0.00534019
-0.0119412 -0.00524181 8.35064e-06
-0.0120844 -0.0053042 0.00533226
-0.0118079 -0.00534272 0.0239499
-0.0116395 -0.00530629 0.0200638
-0.0115209 2.18138e-05 -0.0199671
-0.0116877 1.76257e-05 -0.0237146
-0.0119354 2.70269e-05 -0.00528248
-0.011818 2.29387e-05 1.44336e-06
-0.0119348 2.26721e-05 0.00527861
-0.0116864 3.30748e-06 0.0237158
-0.0115212 4.21502e-06 0.0199679
-0.01164 0.00530131 -0.0200623
-0.0118074 0.00535582 -0.0239437
-0.0120797 0.00533198 -0.00533956
-0.0119359 0.00527847 4.3781e-06
-0.0120794 0.00533156 0.00533226
-0.0118067 0.00535682 0.023946
-0.011639 0.00530112 0.0200624
-0.0114633 0.0243756 -0.0198868
-0.0115658 0.0241887 -0.0241911
-0.0118069 0.0239466 -0.00534956
-0.0116866 0.0237154 -2.83493e-06
-0.0118066 0.0239465 0.00535643
-0.0115655 0.024188 0.0241883
-0.0114631 0.0243756 0.0198871
-0.0113998 0.0206461 -0.0206458
-0.0114632 0.0198871 -0.0243728
-0.0116392 0.0200625 -0.00530753
-0.0115208 0.0199677 3.16747e-06
-0.0116392 0.0200624 0.00530073
-0.0114631 0.0198872 0.0243758
-0.0113997 0.020646 0.020646
-0.010538 -0.0189469 -0.0195546
-0.0105733 -0.0181707 -0.0240713
-0.0105051 -0.0183929 -0.00527126
-0.0102792 -0.0182865 0.000219952
-0.0139084 -0.0183694 0.00614621
0.000113669 -0.0182419 0.0240635
-0.0012348 -0.0190585 0.0192834
-0.00133724 -0.0238295 -0.0182982
-0.00178976 -0.0235001 -0.0236929
-0.00195865 -0.0232536 -0.00535151
-0.00191753 -0.023021 2.78568e-05
-0.00202518 -0.0232337 0.00538716
-0.00192349 -0.0236862 0.0237403
-0.00164326 -0.0239941 0.0182731
-0.00167952 -0.0051556 -0.0184789
-0.00203731 -0.00516903 -0.0234501
-0.0022226 -0.0051682 -0.00536303
-0.00216724 -0.00511211 7.40014e-06
-0.00223968 -0.00518078 0.00536612
-0.00212191 -0.0053419 0.0234465
-0.00177636 -0.00533877 0.0184775
-0.00173454 1.985e-05 -0.0183699
-0.00209845 1.89199e-05 -0.0232122
-0.00227616 2.28091e-05 -0.00530985
-0.00222925 2.05634e-05 1.22509e-06
-0.0022721 1.10063e-05 0.00531461
-0.00208813 1.8448e-05 0.0232098
-0.00172607 1.1466e-06 0.0183688
-0.00178102 0.00537922 -0.018474
-0.00214142 0.00539655 -0.0234459
-0.00232404 0.00540375 -0.00536306
-0.00226836 0.00535012 -4.74225e-07
-0.00232426 0.0054052 0.00536788
-0.00214008 0.00535885 0.0234443
-0.00177889 0.00534637 0.0184738
-0.00164657 0.0240074 -0.0182483
-0.00197725 0.0237105 -0.0236944
-0.00214032 0.0234556 -0.00536084
-0.00208898 0.0232211 -1.56191e-07
-0.00214016 0.0234512 0.00536034
-0.00197693 0.0236974 0.0236969
-0.00164615 0.0239967 0.0182469
-0.00125054 0.0190672 -0.0190677
-0.00164617 0.0182474 -0.0239978
-0.00177908 0.0184745 -0.00534104
-0.00172622 0.0183691 -3.23647e-06
-0.00177904 0.0184742 0.00534627
-0.001646 0.018247 0.0239973
-0.00125049 0.0190669 0.0190666
-0.00104072 -0.01748 -0.0192606
-0.000995247 -0.0168565 -0.0235528
-0.00100914 -0.0170788 -0.00505275
-0.000298148 -0.0169624 0.000690148
-0.00809642 -0.0169771 0.00831915
0.00450334 -0.0178037 0.0210234
-3.55586e-05 -0.0185752 0.0190269
0.00064086 -0.0245194 -0.0177504
0.000400305 -0.0240827 -0.0232952
0.000379744 -0.0238424 -0.0053198
0.000388714 -0.0236208 2.79469e-05
0.00030446 -0.023763 0.00528749
1.44297e-05 -0.0233936 0.0233783
-9.60301e-06 -0.0236777 0.0178199
0.000206345 -0.00513163 -0.0179909
0.000227135 -0.0051324 -0.0231068
0.000226455 -0.00512791 -0.00533131
0.000228741 -0.00507328 4.0447e-06
0.000204797 -0.005114 0.00533154
1.48213e-05 -0.00531692 0.0230949
-2.58938e-06 -0.00529576 0.017994
-1.68702e-05 0.000139196 -0.0178887
-1.7353e-05 0.000142904 -0.02287
-1.6217e-05 0.000147576 -0.00528007
-1.80351e-05 0.000151729 4.55159e-06
-1.74441e-05 0.000138828 0.00528479
-9.07241e-07 2.03953e-05 0.0228704
-2.33192e-06 7.17378e-06 0.0178851
-6.16561e-06 0.00535666 -0.0179926
-7.09058e-06 0.00538458 -0.0231043
-8.96518e-06 0.00539162 -0.00533055
-8.06182e-06 0.00533883 1.63025e-06
-8.16663e-06 0.00538559 0.00533541
-3.59715e-06 0.00532698 0.0231024
-5.00249e-07 0.0052985 0.0179915
-6.80849e-06 0.0237232 -0.0177639
-8.20964e-06 0.0233978 -0.0233551
-7.72216e-06 0.0231458 -0.00532783
-8.00654e-06 0.0229092 3.7401e-06
-5.72978e-06 0.0231384 0.00532685
-2.43465e-06 0.0233654 0.0233562
-6.59123e-07 0.0236871 0.0177648
-1.49928e-06 0.0185982 -0.0185935
-1.748e-06 0.0177697 -0.023682
-1.29846e-06 0.0179966 -0.00530485
-1.58792e-06 0.017888 1.34775e-06
-8.07987e-07 0.0179949 0.00529912
-7.99365e-07 0.0177647 0.0236871
-3.4413e-07 0.0185928 0.0185927
0.00208532 -0.0160974 -0.019194
0.00238211 -0.015676 -0.0231623
0.00243201 -0.0158848 -0.00475385
0.00400033 -0.0158036 0.00148204
-0.00521156 -0.0154097 0.0103562
0.00659285 -0.0184085 0.0182155
0.00112425 -0.0190722 0.0191571
-0.00541217 -0.0265441 -0.0184752
-0.00502084 -0.0260818 -0.0237043
-0.00451394 -0.0257973 -0.00530095
-0.00359549 -0.0254669 0.000118397
-0.00237898 -0.0254296 0.00547208
0.000340912 -0.0238478 0.0237726
0.00158501 -0.0239957 0.0183861
0.00194098 -0.00532506 -0.0184808
0.00230482 -0.00525098 -0.0234236
0.00250796 -0.00527171 -0.00534579
0.00253445 -0.0052833 7.90809e-06
0.00267463 -0.00532338 0.00537315
0.00204923 -0.00533557 0.0234353
0.00176419 -0.00532454 0.0184848
0.00163762 0.000117088 -0.0183846
0.00199868 0.00012006 -0.0232134
0.00218155 0.00013456 -0.00529858
0.00213369 0.000137715 -1.3112e-05
0.00219037 0.00016029 0.00532969
0.00207778 3.2097e-05 0.0232179
0.00172312 2.02386e-05 0.0183768
0.00176356 0.0054506 -0.018485
0.00212333 0.00548585 -0.0234511
0.00230124 0.00549232 -0.00536251
0.00225151 0.00544505 8.4802e-06
0.00230283 0.00550083 0.00537269
0.00213756 0.00532788 0.0234543
0.00177797 0.00533893 0.0184782
0.00162422 0.0241841 -0.0182525
0.00195238 0.0238984 -0.0236971
0.00211704 0.0236489 -0.00535979
0.00206367 0.0234106 5.24466e-06
0.00212095 0.0236213 0.00536387
0.00197099 0.0237329 0.0237043
0.00164457 0.0240031 0.0182491
0.00124476 0.0191012 -0.0190683
0.00163932 0.0182834 -0.0239981
0.0017728 0.0185106 -0.00534112
0.00171956 0.0184049 -2.03486e-06
0.0017742 0.0185027 0.00534704
0.00164381 0.0182569 0.0239994
0.00125007 0.0190675 0.0190671
0.0197112 -0.0144278 -0.0182821
0.0194946 -0.0140829 -0.0222547
0.0190984 -0.0143483 -0.00412105
0.0209455 -0.0146402 0.00249088
0.00956282 -0.0132933 0.00525668
0.0224717 -0.0205886 0.0166745
0.011327 -0.0206142 0.0170983
-0.0610909 -0.0136151 -0.0271175
-0.0553989 -0.0154317 -0.0330262
-0.0422181 -0.0194524 -0.018182
-0.0309678 -0.0220282 -0.00784883
-0.0302536 -0.0219949 0.0101805
-0.0326548 -0.0179558 0.0422065
0.0117103 -0.024524 0.0221789
0.0167041 0.00183677 -0.0199343
0.0171146 0.00111358 -0.0238956
0.0171741 0.000458455 -0.00516931
0.0163915 -0.000500471 0.000277351
0.0154306 -0.00219936 0.0054624
0.0124008 -0.00210485 0.0237568
0.0116273 -0.00520065 0.0200706
0.0111025 0.000567863 -0.0200551
0.0112081 0.000508043 -0.0236992
0.0114561 0.00046145 -0.0052677
0.0113408 0.00029275 2.05926e-05
0.0115102 0.000105594 0.00528009
0.0116535 0.000402265 0.0237359
0.0115176 1.23077e-05 0.020034
0.0116947 0.00502181 -0.0201222
0.0118763 0.00509392 -0.0239699
0.0121381 0.0050851 -0.00531282
0.0120086 0.0050122 -5.74718e-06
0.012131 0.0052645 0.00538485
0.011815 0.00522462 0.0239802
0.0116391 0.00530367 0.0200911
0.0114469 0.0257755 -0.0199078
0.0115461 0.025719 -0.0242008
0.0117919 0.0254541 -0.00534882
0.0116646 0.0252057 2.05903e-05
0.0117923 0.0253333 0.00538898
0.011562 0.0243445 0.0242311
0.0114618 0.0244008 0.0198987
0.0113885 0.0209507 -0.0206445
0.0114498 0.020195 -0.0243741
0.0116264 0.0203731 -0.00530745
0.0115066 0.0202727 7.19078e-06
0.0116286 0.0203247 0.00530836
0.0114604 0.0199413 0.0243861
0.0113999 0.0206525 0.0206483
0.082303 -0.0288662 -0.00817142
0.0770104 -0.0264519 0.00455976
0.0671775 -0.0225769 0.00859085
0.0624768 -0.0211253 0.00134456
0.0734547 -0.0175747 0.00242494
SCALARS mass float 1
LOOKUP_TABLE default
1
1
1
1
1
1
1
1
1
1
1
1
1
1
1
1
1
1
1
1
1
1
1
1
1
1
1
1
1
1
1
1
1
1
1
1
1
1
1
1
1
1
1
1
1
1
1
1
1
1
1
1
1
1
1
1
1
1
1
1
1
1
1
1
1
1
1
1
1
1
1
1
1
1
1
1
1
1
1
1
1
1
1
1
1
1
1
1
1
1
1
1
1
1
1
1
1
1
1
1
1
1
1
1
1
1
1
1
1
1
1
1
1
1
1
1
1
1
1
1
1
1
1
1
1
1
1
1
1
1
1
1
1
1
1
1
1
1
1
1
1
1
1
1
1
1
1
1
1
1
1
1
1
1
1
1
1
1
1
1
1
1
1
1
1
1
1
1
1
1
1
1
1
1
1
1
1
1
1
1
1
1
1
1
1
1
1
1
1
1
1
1
1
1
1
1
1
1
1
1
1
1
1
1
1
1
1
1
1
1
1
1
1
1
1
1
1
1
1
1
1
1
1
1
1
1
1
1
1
1
1
1
1
1
1
1
1
1
1
1
1
1
1
1
1
1
1
1
1
1
