# vtk DataFile Version 3.0
Molecular Dynamics Particle Data
ASCII
DATASET POLYDATA
POINTS 250 float
0.40638 0.406261 0.406249
0.402171 0.402042 0.550036
0.400945 0.400806 0.677253
0.400655 0.40051 0.8
0.400984 0.400806 0.922759
0.402507 0.402036 1.04997
0.406746 0.406254 1.19375
0.402507 0.550052 0.402033
0.397581 0.548087 0.548075
0.396184 0.54728 0.67635
0.395855 0.547044 0.8
0.396193 0.547278 0.92365
0.397613 0.548079 1.05193
0.402542 0.550044 1.19797
0.401328 0.677258 0.400798
0.396223 0.676354 0.547269
0.394746 0.67596 0.675956
0.394402 0.675839 0.8
0.394748 0.675959 0.924045
0.396227 0.676352 1.05273
0.401333 0.677256 1.1992
0.401045 0.8 0.400502
0.395898 0.8 0.547033
0.394408 0.8 0.675835
0.39405 0.8 0.8
0.394408 0.8 0.924165
0.395899 0.8 1.05297
0.401045 0.8 1.1995
0.401333 0.922745 0.400798
0.396228 0.923648 0.547269
0.394752 0.924045 0.675957
0.394408 0.924165 0.8
0.394752 0.924045 0.924045
0.396228 0.923648 1.05273
0.401333 0.922745 1.1992
0.402543 1.04996 0.402034
0.397622 1.05192 0.548077
0.396228 1.05273 0.676351
0.395899 1.05297 0.8
0.396228 1.05273 0.923648
0.397622 1.05192 1.05192
0.402543 1.04996 1.19797
0.406749 1.19375 0.406254
0.402543 1.19797 0.550043
0.401333 1.1992 0.677256
0.401046 1.1995 0.8
0.401333 1.1992 0.922745
0.402543 1.19797 1.04996
0.406749 1.19375 1.19375
0.551963 0.402152 0.402063
0.550144 0.397232 0.548101
0.54941 0.395819 0.676376
0.549219 0.395484 0.80004
0.549607 0.395819 0.923752
0.554763 0.397218 1.05199
0.556611 0.402137 1.19788
0.554674 0.548237 0.397201
0.552724 0.546049 0.54596
0.551979 0.545147 0.675393
0.551779 0.544886 0.80001
0.55203 0.545136 0.924622
0.552982 0.54598 1.05405
0.55493 0.548165 1.20279
0.554273 0.676419 0.395799
0.552278 0.675422 0.545059
0.551502 0.674986 0.674958
0.551292 0.674852 0.8
0.551507 0.674981 0.925044
0.552296 0.675401 1.05494
0.554293 0.676399 1.2042
0.554113 0.800013 0.395467
0.552097 0.800015 0.544798
0.551314 0.800015 0.674825
0.551098 0.800016 0.8
0.551316 0.800012 0.925175
0.552098 0.8 1.0552
0.554113 0.8 1.20453
0.554293 0.923602 0.395802
0.5523 0.924606 0.54506
0.551527 0.925043 0.674959
0.551316 0.925177 0.8
0.551527 0.925042 0.925041
0.552301 0.924604 1.05494
0.554293 0.923601 1.2042
0.554937 1.05184 0.397217
0.553033 1.05403 0.545967
0.552301 1.05494 0.675396
0.552099 1.0552 0.8
0.552301 1.05494 0.924604
0.553033 1.05403 1.05403
0.554937 1.05184 1.20278
0.556629 1.19786 0.402136
0.554937 1.20278 0.548164
0.554293 1.2042 0.676398
0.554113 1.20453 0.8
0.554293 1.2042 0.9236
0.554937 1.20278 1.05184
0.556629 1.19786 1.19786
0.68505 0.401307 0.40096
0.684614 0.396243 0.547417
0.684419 0.39478 0.676088
0.684442 0.394433 0.80016
0.684118 0.394779 0.924403
0.699964 0.396259 1.05281
0.699971 0.401307 1.19877
0.699412 0.547901 0.396205
0.699294 0.54567 0.54539
0.699267 0.54475 0.675141
0.699272 0.544482 0.800028
0.699366 0.544724 0.924917
0.699901 0.545449 1.05465
0.699989 0.547681 1.20376
0.69999 0.676257 0.394786
0.699982 0.675241 0.544476
0.699978 0.674798 0.674687
0.69998 0.67466 0.8
0.699985 0.674782 0.925315
0.699993 0.675156 1.05553
0.7 0.676171 1.20521
0.699988 0.800034 0.394442
0.699981 0.800039 0.544207
0.69998 0.800042 0.67455
0.699982 0.80004 0.8
0.699989 0.800036 0.92545
0.7 0.800012 1.05579
0.7 0.8 1.20556
0.7 0.923841 0.394792
0.7 0.924875 0.54448
0.7 0.925327 0.67469
0.7 0.925464 0.8
0.7 0.925323 0.92531
0.7 0.924863 1.05552
0.7 0.92383 1.20521
0.7 1.05232 0.396257
0.7 1.05459 0.545416
0.7 1.05552 0.67514
0.7 1.05579 0.8
0.7 1.05552 0.924861
0.7 1.05459 1.05459
0.7 1.05232 1.20374
0.7 1.19869 0.401305
0.7 1.20374 0.547678
0.7 1.20521 0.67617
0.7 1.20555 0.8
0.7 1.20521 0.92383
0.7 1.20374 1.05232
0.7 1.19869 1.19869
0.816532 0.402244 0.401026
0.817355 0.397245 0.54751
0.817716 0.395834 0.676304
0.818126 0.3955 0.800577
0.815778 0.395804 0.925198
0.845674 0.397235 1.05265
0.843341 0.402142 1.19819
0.843932 0.54858 0.397056
0.845575 0.546461 0.5459
0.846256 0.54558 0.675407
0.846476 0.545321 0.800076
0.846443 0.545552 0.924736
0.846748 0.546035 1.05421
0.845044 0.548175 1.20286
0.845755 0.676697 0.395783
0.847744 0.675743 0.545047
0.848515 0.675322 0.674958
0.848731 0.675189 0.800006
0.848518 0.675281 0.925061
0.847691 0.675451 1.05496
0.845704 0.676405 1.20421
0.845868 0.800161 0.39546
0.847879 0.800188 0.544792
0.848661 0.800196 0.674822
0.848877 0.800195 0.800001
0.848665 0.800168 0.925183
0.847896 0.800031 1.05521
0.845886 0.800003 1.20454
0.845702 0.923672 0.3958
0.847692 0.924689 0.545059
0.848462 0.92513 0.674957
0.848675 0.925263 0.8
0.848464 0.925114 0.925044
0.847698 0.924625 1.05494
0.845707 0.923602 1.2042
0.845061 1.05185 0.397216
0.846964 1.05405 0.545966
0.847698 1.05496 0.675396
0.847899 1.05522 0.8
0.847698 1.05496 0.924605
0.846966 1.05404 1.05403
0.845063 1.05184 1.20278
0.843371 1.19787 0.402136
0.845063 1.20279 0.548164
0.845707 1.2042 0.676398
0.845887 1.20453 0.8
0.845707 1.2042 0.923601
0.845063 1.20278 1.05184
0.843371 1.19787 1.19786
0.951364 0.404495 0.402484
0.953588 0.400131 0.548831
0.954618 0.398849 0.677763
0.95575 0.398623 0.80219
0.950512 0.399288 0.927382
0.998084 0.40035 1.04956
0.993263 0.406283 1.19533
0.99045 0.553185 0.401083
0.99426 0.551634 0.547755
0.995542 0.550843 0.676185
0.996295 0.550316 0.799759
0.997219 0.549763 0.923609
1.00057 0.54907 1.05326
0.997443 0.550076 1.1984
0.9992 0.67862 0.40078
1.00441 0.677937 0.547235
1.0059 0.677576 0.675953
1.00624 0.677404 0.80003
1.00583 0.677355 0.924108
1.00382 0.67665 1.05278
0.998663 0.677284 1.19923
0.998907 0.801002 0.40047
1.00405 0.801163 0.547008
1.00554 0.801186 0.675828
1.00589 0.801171 0.800019
1.00554 0.801057 0.924205
1.0041 0.800168 1.05301
0.998954 0.800018 1.19951
0.99867 0.923298 0.400788
1.00378 0.924292 0.547259
1.00525 0.924702 0.675951
1.0056 0.924817 0.800002
1.00525 0.924617 0.92406
1.00377 0.923744 1.05275
0.998668 0.922755 1.1992
0.997455 1.05008 0.402033
1.00238 1.05207 0.548075
1.00377 1.05288 0.67635
1.0041 1.05312 0.8
1.00377 1.05286 0.923652
1.00238 1.05195 1.05193
0.997455 1.04996 1.19797
0.99325 1.19375 0.406254
0.997455 1.19798 0.550043
0.998668 1.19921 0.677256
0.998954 1.1995 0.8
0.998668 1.19921 0.922745
0.997455 1.19797 1.04996
0.99325 1.19375 1.19375
1.09743 0.49407 0.408974
1.10232 0.492944 0.557254
1.10373 0.492679 0.699323
1.10375 0.492739 0.841248
1.10559 0.494656 0.986702
VERTICES 250 500
1 0
1 1
1 2
1 3
1 4
1 5
1 6
1 7
1 8
1 9
1 10
1 11
1 12
1 13
1 14
1 15
1 16
1 17
1 18
1 19
1 20
1 21
1 22
1 23
1 24
1 25
1 26
1 27
1 28
1 29
1 30
1 31
1 32
1 33
1 34
1 35
1 36
1 37
1 38
1 39
1 40
1 41
1 42
1 43
1 44
1 45
1 46
1 47
1 48
1 49
1 50
1 51
1 52
1 53
1 54
1 55
1 56
1 57
1 58
1 59
1 60
1 61
1 62
1 63
1 64
1 65
1 66
1 67
1 68
1 69
1 70
1 71
1 72
1 73
1 74
1 75
1 76
1 77
1 78
1 79
1 80
1 81
1 82
1 83
1 84
1 85
1 86
1 87
1 88
1 89
1 90
1 91
1 92
1 93
1 94
1 95
1 96
1 97
1 98
1 99
1 100
1 101
1 102
1 103
1 104
1 105
1 106
1 107
1 108
1 109
1 110
1 111
1 112
1 113
1 114
1 115
1 116
1 117
1 118
1 119
1 120
1 121
1 122
1 123
1 124
1 125
1 126
1 127
1 128
1 129
1 130
1 131
1 132
1 133
1 134
1 135
1 136
1 137
1 138
1 139
1 140
1 141
1 142
1 143
1 144
1 145
1 146
1 147
1 148
1 149
1 150
1 151
1 152
1 153
1 154
1 155
1 156
1 157
1 158
1 159
1 160
1 161
1 162
1 163
1 164
1 165
1 166
1 167
1 168
1 169
1 170
1 171
1 172
1 173
1 174
1 175
1 176
1 177
1 178
1 179
1 180
1 181
1 182
1 183
1 184
1 185
1 186
1 187
1 188
1 189
1 190
1 191
1 192
1 193
1 194
1 195
1 196
1 197
1 198
1 199
1 200
1 201
1 202
1 203
1 204
1 205
1 206
1 207
1 208
1 209
1 210
1 211
1 212
1 213
1 214
1 215
1 216
1 217
1 218
1 219
1 220
1 221
1 222
1 223
1 224
1 225
1 226
1 227
1 228
1 229
1 230
1 231
1 232
1 233
1 234
1 235
1 236
1 237
1 238
1 239
1 240
1 241
1 242
1 243
1 244
1 245
1 246
1 247
1 248
1 249
POINT_DATA 250
VECTORS velocity float
-0.15753 -0.158246 -0.158308
-0.163986 -0.16473 -0.115618
-0.166738 -0.167527 -0.0645573
-0.167486 -0.168304 2.52777e-05
-0.166569 -0.16753 0.0646175
-0.162218 -0.164774 0.115675
-0.155585 -0.158291 0.158305
-0.162226 -0.115545 -0.164787
-0.169907 -0.119019 -0.119076
-0.17299 -0.120858 -0.0662673
-0.173817 -0.121467 1.27011e-05
-0.172955 -0.120867 0.066276
-0.169768 -0.119061 0.119082
-0.162074 -0.115591 0.164786
-0.16477 -0.0645285 -0.16758
-0.172823 -0.0662506 -0.120913
-0.176094 -0.0671537 -0.067172
-0.176955 -0.067462 -3.71742e-06
-0.176088 -0.0671572 0.0671785
-0.172809 -0.0662631 0.120913
-0.164754 -0.0645405 0.167579
-0.165487 -2.40172e-06 -0.168357
-0.173635 1.3116e-05 -0.121521
-0.176936 4.55474e-06 -0.0674795
-0.17784 6.37768e-06 -2.38278e-06
-0.176936 1.92982e-06 0.0674797
-0.173633 8.48326e-06 0.121519
-0.165486 -9.24493e-06 0.168356
-0.164753 0.0645462 -0.167579
-0.172805 0.0662648 -0.120911
-0.176073 0.0671759 -0.0671714
-0.176936 0.0674797 -5.00348e-06
-0.176072 0.0671758 0.0671756
-0.172805 0.0662642 0.120911
-0.164753 0.0645459 0.167578
-0.16207 0.115591 -0.164779
-0.169733 0.11907 -0.119071
-0.172805 0.120911 -0.0662658
-0.173632 0.121519 4.46966e-06
-0.172804 0.120911 0.0662645
-0.169733 0.11907 0.11907
-0.16207 0.115592 0.164782
-0.155572 0.158293 -0.158291
-0.162069 0.164782 -0.115592
-0.164753 0.167578 -0.0645408
-0.165485 0.168355 -1.04415e-05
-0.164753 0.167578 0.0645461
-0.162069 0.164782 0.115591
-0.155572 0.158293 0.158293
-0.106374 -0.164285 -0.164656
-0.109412 -0.171882 -0.118966
-0.111003 -0.175041 -0.0661534
-0.111466 -0.1759 0.000159525
-0.110893 -0.175038 0.0666762
-0.0921739 -0.17195 0.119307
-0.0891333 -0.164362 0.164449
-0.0927033 -0.118463 -0.172011
-0.0960376 -0.122244 -0.122572
-0.097609 -0.12426 -0.067957
-0.0980821 -0.124924 2.72178e-05
-0.0974788 -0.124299 0.068022
-0.0952859 -0.122503 0.122611
-0.0919777 -0.118732 0.171972
-0.0933422 -0.0660001 -0.175128
-0.0967297 -0.0678482 -0.124585
-0.0983601 -0.0688291 -0.0689471
-0.0988505 -0.0691623 1.08278e-05
-0.0983527 -0.068849 0.0689529
-0.0967004 -0.0679426 0.124588
-0.0933126 -0.066091 0.175125
-0.0937338 3.15332e-05 -0.175983
-0.0971702 3.74529e-05 -0.125249
-0.0988174 3.69485e-05 -0.0692807
-0.0993229 3.67819e-05 7.71245e-06
-0.0988087 3.68665e-05 0.0692798
-0.0971634 2.2413e-05 0.125249
-0.0937337 3.63405e-06 0.175982
-0.093313 0.0661054 -0.175121
-0.0966913 0.0679749 -0.12458
-0.0983179 0.0689627 -0.0689451
-0.0988097 0.0692981 2.46316e-06
-0.0983168 0.0689554 0.0689451
-0.0966898 0.0679574 0.124581
-0.0933116 0.0660925 0.17512
-0.0919562 0.118738 -0.171956
-0.0951541 0.122545 -0.122544
-0.0966901 0.124582 -0.0679586
-0.0971627 0.12525 6.29e-06
-0.0966899 0.124581 0.0679566
-0.0951538 0.122544 0.122544
-0.0919558 0.118737 0.171955
-0.0890851 0.164367 -0.164363
-0.091956 0.171956 -0.118736
-0.0933118 0.17512 -0.0660939
-0.0937334 0.175982 4.99722e-07
-0.0933117 0.17512 0.0660921
-0.0919559 0.171955 0.118737
-0.0890852 0.164367 0.164366
-0.0380266 -0.165831 -0.166991
-0.038722 -0.173723 -0.120371
-0.0391181 -0.176985 -0.0666725
-0.0389484 -0.177869 0.000569981
-0.0426112 -0.176993 0.0684426
0.00145362 -0.173735 0.120715
-2.92082e-05 -0.165908 0.166217
-0.00111694 -0.119137 -0.173881
-0.00142434 -0.12298 -0.123602
-0.00148178 -0.125034 -0.0684189
-0.00148423 -0.12571 3.51021e-05
-0.0013182 -0.125065 0.0685818
-0.000194507 -0.12348 0.123715
-2.77656e-05 -0.119619 0.173802
7.10004e-05 -0.0662358 -0.177028
5.6685e-05 -0.0681105 -0.12565
4.62126e-05 -0.069104 -0.0694628
5.14287e-05 -0.0694414 2.62239e-05
5.33625e-05 -0.069144 0.0694654
-1.41111e-05 -0.0683923 0.125654
-1.49646e-05 -0.0665294 0.17702
-3.55898e-05 0.000122317 -0.177909
-3.65961e-05 0.000140291 -0.126328
-3.73558e-05 0.000151405 -0.0697987
-3.91091e-05 0.000149736 4.51125e-06
-3.36512e-05 0.000126818 0.0698024
-1.5646e-05 2.72892e-05 0.126329
-7.49173e-06 1.0006e-05 0.177903
-1.64789e-05 0.0665848 -0.177015
-1.59066e-05 0.0685082 -0.12564
-1.91294e-05 0.0695244 -0.0694566
-1.89764e-05 0.0698646 3.67281e-06
-1.79357e-05 0.0695114 0.0694582
-5.85584e-06 0.068459 0.125639
-2.33824e-06 0.066532 0.177011
-5.15016e-06 0.119638 -0.173746
-6.16638e-06 0.123562 -0.123549
-4.76706e-06 0.125654 -0.0684413
-6.22054e-06 0.126339 4.96295e-07
-3.09831e-06 0.12565 0.0684438
-2.55568e-06 0.123549 0.123548
-1.55868e-06 0.119627 0.173745
7.07179e-07 0.165915 -0.165915
-1.61182e-06 0.173747 -0.11963
-1.67041e-06 0.177013 -0.0665302
-1.05709e-06 0.177901 -3.4831e-06
-1.3714e-06 0.177013 0.0665319
-1.19064e-06 0.173746 0.119626
1.16715e-06 0.165915 0.165915
0.0408618 -0.163547 -0.166908
0.0423599 -0.171399 -0.120075
0.0431912 -0.174536 -0.0659666
0.0446135 -0.17539 0.00174094
0.0344441 -0.17462 0.0705424
0.096076 -0.171906 0.118822
0.089027 -0.164343 0.165269
0.0892987 -0.118621 -0.1723
0.0918736 -0.122297 -0.122662
0.0932724 -0.124302 -0.0679068
0.0938173 -0.124955 0.000164717
0.0937594 -0.124212 0.0681948
0.0945981 -0.122492 0.122895
0.091911 -0.118716 0.172145
0.0935888 -0.0654275 -0.175153
0.0969819 -0.0671873 -0.124604
0.0986098 -0.0681279 -0.0689454
0.0991148 -0.0684558 2.76325e-05
0.0986036 -0.068193 0.0689828
0.0966836 -0.067848 0.124622
0.0933056 -0.066076 0.175147
0.0936753 0.00046607 -0.176
0.0970922 0.00054123 -0.125264
0.0987367 0.000564329 -0.0692879
0.0992441 0.000568264 3.02728e-05
0.0987505 0.000500979 0.0692968
0.0971513 6.6275e-05 0.125271
0.0937321 2.48197e-05 0.175991
0.0932878 0.0663662 -0.175128
0.0966606 0.0682731 -0.124587
0.0982784 0.0692719 -0.068948
0.0987765 0.069603 1.17077e-05
0.0982846 0.0692239 0.0689554
0.096685 0.0680198 0.124592
0.0933119 0.0661024 0.175122
0.0919459 0.118824 -0.171958
0.0951427 0.122643 -0.122546
0.0966801 0.12469 -0.0679597
0.0971498 0.125354 9.20445e-06
0.0966821 0.124666 0.0679602
0.0951504 0.122568 0.122546
0.0919545 0.118738 0.171956
0.0890831 0.164373 -0.164364
0.0919537 0.171964 -0.118736
0.0933116 0.175129 -0.0660939
0.0937319 0.17599 1.22275e-06
0.0933119 0.175126 0.0660925
0.0919546 0.171958 0.118738
0.0890841 0.164367 0.164367
0.116754 -0.160209 -0.163769
0.120603 -0.166926 -0.116586
0.122903 -0.169784 -0.0624361
0.126144 -0.170424 0.00586052
0.109717 -0.168177 0.0741721
0.166848 -0.170935 0.108528
0.155552 -0.158206 0.160995
0.133033 -0.10417 -0.167647
0.138049 -0.107028 -0.120339
0.141404 -0.109316 -0.0684147
0.144991 -0.111552 -0.00298018
0.150008 -0.114491 0.0651856
0.160928 -0.115053 0.124093
0.162052 -0.115544 0.16596
0.166775 -0.0618038 -0.167535
0.175209 -0.0631564 -0.120949
0.178546 -0.0640065 -0.0671791
0.179363 -0.0645239 8.28247e-05
0.178194 -0.0647482 0.0672785
0.173015 -0.0653573 0.120928
0.164744 -0.0644746 0.167624
0.165267 0.00212657 -0.168456
0.173378 0.00247614 -0.121592
0.176678 0.00254029 -0.0674806
0.177573 0.00247692 2.90012e-05
0.176703 0.00230303 0.0675931
0.173608 0.000334015 0.121648
0.165483 4.00074e-05 0.168389
0.164767 0.0664952 -0.167617
0.172824 0.0684926 -0.12095
0.176081 0.0694434 -0.0671887
0.176958 0.0697275 3.26434e-05
0.176079 0.0691992 0.0672323
0.172809 0.0665529 0.120974
0.164754 0.0645783 0.167589
0.162065 0.116278 -0.164787
0.169726 0.119857 -0.11908
0.172802 0.121719 -0.0662685
0.173623 0.122321 1.52763e-05
0.172802 0.121603 0.0662819
0.16973 0.119199 0.119089
0.162069 0.115606 0.164786
0.155571 0.158338 -0.158292
0.162068 0.164831 -0.115593
0.164753 0.167628 -0.0645412
0.165483 0.168406 -1.0036e-05
0.164753 0.167617 0.0645479
0.162069 0.164793 0.115594
0.155573 0.158295 0.158293
0.176664 -0.0210061 -0.152799
0.185213 -0.0234201 -0.0884394
0.188137 -0.0239256 -0.000340641
0.18668 -0.0230845 0.0868067
0.190856 -0.0146652 0.14429
VECTORS force float
-0.0295056 -0.0325318 -0.0327298
-0.0290434 -0.0320026 -0.0532451
-0.0299292 -0.0329879 -0.027914
-0.0301016 -0.0332204 0.000109295
-0.02964 -0.0329985 0.0280675
-0.0236562 -0.0321781 0.0534392
-0.0234621 -0.0327142 0.0327553
-0.0237343 -0.0530537 -0.032212
-0.0238081 -0.0526136 -0.0527655
-0.0247406 -0.0526522 -0.0273747
-0.0248916 -0.0525895 1.16273e-05
-0.0246816 -0.0526739 0.0274135
-0.023517 -0.0527343 0.052778
-0.0234137 -0.0531961 0.0322022
-0.0242201 -0.0278444 -0.0331904
-0.0243969 -0.0273247 -0.0528039
-0.025388 -0.0271467 -0.0271941
-0.0255145 -0.0270476 1.14912e-05
-0.0253828 -0.0271565 0.0271836
-0.0243808 -0.027365 0.0528099
-0.0242009 -0.0278806 0.033189
-0.0243374 2.22579e-05 -0.0334223
-0.024529 1.55849e-05 -0.0527407
-0.0254919 3.45469e-05 -0.0270924
-0.0256598 2.90744e-05 3.52258e-06
-0.0254915 2.95545e-05 0.0270836
-0.0245271 1.18406e-06 0.0527435
-0.0243377 3.82799e-06 0.0334238
-0.024201 0.0278783 -0.0331873
-0.024377 0.0273862 -0.0528009
-0.0253651 0.02718 -0.0271948
-0.0254928 0.0270835 8.51603e-06
-0.0253645 0.0271796 0.0271802
-0.0243763 0.0273873 0.0528063
-0.0241996 0.0278765 0.0331871
-0.023405 0.0531996 -0.032192
-0.0234581 0.0527508 -0.0527573
-0.0243763 0.052807 -0.0273716
-0.0245269 0.0527431 -6.93975e-06
-0.024376 0.0528069 0.027387
-0.0234578 0.0527504 0.0527503
-0.0234049 0.0532001 0.0321934
-0.0234367 0.0327166 -0.0327164
-0.0234049 0.0321934 -0.053197
-0.0242001 0.0331872 -0.027882
-0.024337 0.0334234 1.62892e-06
-0.0242 0.0331871 0.0278764
-0.0234049 0.0321934 0.0532
-0.0234365 0.0327165 0.0327165
-0.0309812 -0.0311237 -0.0318774
-0.0305812 -0.030572 -0.0525587
-0.0305564 -0.0316379 -0.0271981
-0.0304325 -0.0318621 0.000308526
-0.0338131 -0.0316184 0.0282236
-0.0085869 -0.0306951 0.0530219
-0.0100181 -0.0312834 0.0315114
-0.0104418 -0.0519243 -0.030795
-0.0108033 -0.0512592 -0.0517024
-0.0110135 -0.0512794 -0.026638
-0.0110078 -0.0512088 -1.88999e-05
-0.0110348 -0.051294 0.0267863
-0.0105091 -0.0516441 0.0517627
-0.0103048 -0.0523031 0.0307411
-0.0103469 -0.0269998 -0.0317912
-0.0106231 -0.0264225 -0.0517185
-0.0108564 -0.0262365 -0.02651
-0.0108301 -0.0261242 8.88339e-06
-0.010874 -0.0262683 0.0265216
-0.0107103 -0.0266609 0.0517116
-0.0104518 -0.0272615 0.0317894
-0.0104364 -2.82732e-05 -0.0320116
-0.0107268 -3.50183e-06 -0.0516429
-0.0109521 -1.80155e-06 -0.0264124
-0.0109354 -8.77261e-06 2.79057e-06
-0.0109402 -1.54057e-06 0.0264193
-0.0107081 2.85525e-05 0.0516378
-0.0104268 -3.14211e-06 0.0320103
-0.010458 0.0273526 -0.0317833
-0.0107336 0.0267626 -0.0517096
-0.0109637 0.0265971 -0.0265136
-0.0109376 0.0264964 -2.34277e-06
-0.0109631 0.0265861 0.0265247
-0.0107313 0.026687 0.0517041
-0.0104547 0.0272776 0.0317841
-0.0103017 0.0523115 -0.0307105
-0.0105319 0.0516884 -0.0516756
-0.0107316 0.0517121 -0.0266913
-0.0107098 0.0516442 2.29131e-06
-0.0107312 0.0517078 0.0266866
-0.0105311 0.0516805 0.0516802
-0.0103011 0.0523058 0.0307089
-0.0100206 0.03129 -0.0312913
-0.0103012 0.0307095 -0.0523067
-0.0104549 0.0317842 -0.0272672
-0.010427 0.0320106 -8.2811e-06
-0.010455 0.0317839 0.0272777
-0.0103009 0.030709 0.0523068
-0.0100206 0.0312899 0.0312894
-0.00766262 -0.0302042 -0.0321312
-0.00746007 -0.0297781 -0.0520477
-0.00737007 -0.0308344 -0.0266224
-0.00652261 -0.0310375 0.000857188
-0.0186246 -0.0308207 0.0302667
0.00643067 -0.0303795 0.0500378
-1.19376e-06 -0.0309428 0.0315648
0.00058252 -0.0523159 -0.0304436
0.00029814 -0.0515719 -0.0511244
0.000277038 -0.0516041 -0.0264131
0.000262984 -0.0515385 2.35699e-05
0.000157534 -0.051472 0.0264606
6.35879e-05 -0.0512122 0.0512589
-1.36321e-05 -0.0518345 0.030455
0.000308141 -0.0266585 -0.0314561
0.000338585 -0.0260622 -0.0511995
0.000340259 -0.0258661 -0.0262743
0.000340707 -0.0257543 1.06591e-05
0.00029413 -0.025858 0.0262819
2.89964e-05 -0.0263851 0.0511818
-4.73334e-06 -0.0270295 0.0314582
-1.94988e-05 0.000201653 -0.0316833
-1.47249e-05 0.000241127 -0.0511231
-1.39225e-05 0.000254029 -0.0261694
-1.99738e-05 0.000263239 3.79366e-06
-1.86998e-05 0.000207162 0.0261838
-5.31018e-06 -2.75506e-05 0.0511174
-4.15982e-06 1.11035e-05 0.0316784
-1.35117e-05 0.0271405 -0.0314539
-1.38737e-05 0.026554 -0.0511915
-1.73302e-05 0.0263796 -0.0262744
-1.66171e-05 0.0262696 2.52185e-06
-1.82107e-05 0.0263787 0.0262848
-6.62575e-06 0.0264995 0.0511853
-6.55603e-07 0.0270305 0.0314538
-9.43351e-06 0.051889 -0.0303794
-1.17217e-05 0.051221 -0.0511714
-1.10488e-05 0.0512409 -0.0264563
-1.17322e-05 0.0511681 6.03163e-06
-8.23577e-06 0.0512274 0.0264552
-3.51438e-06 0.0511788 0.051171
-9.12286e-07 0.0518492 0.0303805
-1.43748e-06 0.0309674 -0.0309648
-1.83143e-06 0.0303842 -0.0518426
-1.16909e-06 0.0314572 -0.0270375
-1.7633e-06 0.0316789 1.19698e-06
-5.44249e-07 0.0314563 0.0270308
-9.56616e-07 0.0303803 0.0518491
-2.36549e-07 0.0309634 0.0309633
0.00949553 -0.0281959 -0.0321197
0.00968842 -0.0280273 -0.0514967
0.00983408 -0.0290317 -0.0259145
0.012225 -0.0292452 0.00190168
-0.00319776 -0.028829 0.0333122
0.0183972 -0.030767 0.0448326
0.00992179 -0.0312668 0.0319664
0.00502585 -0.0549747 -0.0309039
0.00477102 -0.0542778 -0.0516417
0.00488308 -0.0543753 -0.0266431
0.00532979 -0.0542767 6.72731e-05
0.00632657 -0.0539482 0.0268018
0.0092653 -0.0518822 0.0517621
0.0102444 -0.0523055 0.0308868
0.0109205 -0.027117 -0.031777
0.0112292 -0.0264515 -0.0516878
0.0114616 -0.0262592 -0.0265329
0.0114854 -0.0261739 4.7478e-05
0.0115403 -0.0262412 0.0264917
0.0106864 -0.0266848 0.0517014
0.0104431 -0.027239 0.0317949
0.0103192 0.000286552 -0.0320318
0.0105927 0.000319922 -0.0516511
0.0108215 0.000354569 -0.0264157
0.0108045 0.000368132 2.2485e-05
0.0108387 0.000371141 0.0264232
0.010698 5.37822e-05 0.0516594
0.0104237 8.77411e-06 0.0320197
0.0104193 0.0276011 -0.0317974
0.0106912 0.0270466 -0.0517221
0.0109137 0.0268701 -0.0265102
0.0108958 0.0267726 1.30627e-05
0.0109201 0.0268535 0.026532
0.0107241 0.0266761 0.0517243
0.0104532 0.0272822 0.0317882
0.0102724 0.0525601 -0.0307158
0.0104994 0.0519578 -0.0516806
0.0106998 0.052 -0.0266904
0.0106755 0.0519279 1.00766e-05
0.0107054 0.051949 0.026691
0.0105224 0.0517433 0.0516904
0.0102983 0.0523124 0.0307116
0.010015 0.0313164 -0.0312922
0.010294 0.0307396 -0.0523069
0.0104494 0.0318141 -0.0272675
0.0104209 0.0320402 -6.49843e-06
0.0104507 0.0318068 0.0272771
0.0102979 0.0307182 0.0523095
0.0100194 0.0312905 0.0312897
0.0452187 -0.0262786 -0.0304902
0.0448817 -0.0259025 -0.049223
0.0448342 -0.0268058 -0.0250734
0.0480583 -0.0273366 0.00557737
0.0300767 -0.02488 0.0286081
0.036009 -0.0387222 0.0397125
0.0232986 -0.032618 0.0300488
-0.0690061 -0.0207478 -0.0398268
-0.0680687 -0.0222086 -0.0594723
-0.0590829 -0.0270418 -0.0418632
-0.0439893 -0.0339079 -0.0137489
-0.0285487 -0.041308 0.0258231
-0.0122326 -0.0409659 0.0695845
0.0234899 -0.0532783 0.0340103
0.0289562 -0.0211152 -0.0329726
0.0297536 -0.0207237 -0.0527437
0.0307969 -0.0207799 -0.0271305
0.0305673 -0.0215635 0.000250739
0.0294858 -0.0238214 0.0272755
0.0249209 -0.0245014 0.0525579
0.0241867 -0.0277872 0.0331598
0.0238065 -0.000521578 -0.0335467
0.0239113 -0.000528666 -0.0527557
0.0248678 -0.000495712 -0.0270388
0.0250259 -0.0006373 8.30392e-06
0.0249306 -0.000559018 0.027118
0.0244794 0.000128167 0.0528121
0.024334 2.94643e-05 0.0334908
0.0242573 0.0289245 -0.033264
0.0244486 0.0285472 -0.052859
0.0254224 0.0283459 -0.0271914
0.0255719 0.028221 5.97711e-05
0.0254133 0.0284555 0.0272522
0.0243862 0.0273784 0.0528947
0.0242011 0.0278848 0.0332188
0.0233847 0.0552626 -0.0322129
0.0234328 0.0550376 -0.052779
0.0243569 0.0550928 -0.0273745
0.0244977 0.0550146 2.55673e-05
0.0243587 0.0548303 0.0274321
0.0234533 0.0530523 0.0528087
0.0234038 0.0532414 0.0322048
0.0234313 0.0329345 -0.0327174
0.0233971 0.0324221 -0.0531989
0.0241934 0.0334255 -0.0278833
0.0243276 0.0336572 3.61614e-06
0.0241948 0.0333843 0.0278861
0.0234031 0.0322383 0.0532075
0.0234376 0.0327219 0.0327183
0.107832 -0.0525197 -0.0214704
0.107728 -0.0516939 -0.00653819
0.102671 -0.0484673 0.00972025
0.0915119 -0.0432019 0.0163873
0.091142 -0.0288461 0.0203019
SCALARS mass float 1
LOOKUP_TABLE default
1
1
1
1
1
1
1
1
1
1
1
1
1
1
1
1
1
1
1
1
1
1
1
1
1
1
1
1
1
1
1
1
1
1
1
1
1
1
1
1
1
1
1
1
1
1
1
1
1
1
1
1
1
1
1
1
1
1
1
1
1
1
1
1
1
1
1
1
1
1
1
1
1
1
1
1
1
1
1
1
1
1
1
1
1
1
1
1
1
1
1
1
1
1
1
1
1
1
1
1
1
1
1
1
1
1
1
1
1
1
1
1
1
1
1
1
1
1
1
1
1
1
1
1
1
1
1
1
1
1
1
1
1
1
1
1
1
1
1
1
1
1
1
1
1
1
1
1
1
1
1
1
1
1
1
1
1
1
1
1
1
1
1
1
1
1
1
1
1
1
1
1
1
1
1
1
1
1
1
1
1
1
1
1
1
1
1
1
1
1
1
1
1
1
1
1
1
1
1
1
1
1
1
1
1
1
1
1
1
1
1
1
1
1
1
1
1
1
1
1
1
1
1
1
1
1
1
1
1
1
1
1
1
1
1
1
1
1
1
1
1
1
1
1
1
1
1
1
1
1
