# vtk DataFile Version 3.0
Molecular Dynamics Particle Data
ASCII
DATASET POLYDATA
POINTS 250 float
0.489248 0.489248 0.489248
0.488721 0.48872 0.598623
0.488678 0.488677 0.699896
0.488674 0.488674 0.8
0.488678 0.488677 0.900104
0.488721 0.48872 1.00138
0.489248 0.489248 1.11075
0.488721 0.598623 0.48872
0.488114 0.598522 0.598522
0.488063 0.598507 0.699884
0.488058 0.598506 0.8
0.488063 0.598507 0.900117
0.488114 0.598522 1.00148
0.488721 0.598623 1.11128
0.488678 0.699896 0.488677
0.488063 0.699884 0.598507
0.488009 0.699881 0.699881
0.488005 0.699881 0.8
0.488009 0.699881 0.900119
0.488063 0.699884 1.00149
0.488678 0.699896 1.11132
0.488674 0.8 0.488674
0.488058 0.8 0.598506
0.488005 0.8 0.699881
0.488 0.8 0.8
0.488005 0.8 0.900119
0.488058 0.8 1.00149
0.488674 0.8 1.11133
0.488678 0.900104 0.488677
0.488063 0.900117 0.598507
0.488009 0.900119 0.699881
0.488005 0.900119 0.8
0.488009 0.900119 0.900119
0.488063 0.900117 1.00149
0.488678 0.900103 1.11132
0.488721 1.00138 0.48872
0.488114 1.00148 0.598522
0.488063 1.00149 0.699884
0.488058 1.00149 0.8
0.488063 1.00149 0.900117
0.488114 1.00148 1.00148
0.488721 1.00138 1.11128
0.489248 1.11075 0.489248
0.488721 1.11128 0.598623
0.488678 1.11132 0.699896
0.488674 1.11133 0.8
0.488678 1.11132 0.900103
0.488721 1.11128 1.00138
0.489248 1.11075 1.11075
0.598625 0.488721 0.488721
0.598525 0.488114 0.598522
0.598511 0.488063 0.699884
0.598509 0.488058 0.8
0.598511 0.488063 0.900117
0.598528 0.488114 1.00148
0.598629 0.488721 1.11128
0.598528 0.598523 0.488114
0.598411 0.598404 0.598404
0.598394 0.598386 0.699868
0.598392 0.598385 0.8
0.598394 0.598386 0.900133
0.598412 0.598404 1.0016
0.598529 0.598522 1.11189
0.598515 0.699884 0.488062
0.598395 0.699868 0.598386
0.598377 0.699865 0.699865
0.598375 0.699864 0.8
0.598377 0.699865 0.900136
0.598395 0.699868 1.00161
0.598515 0.699884 1.11194
0.598514 0.8 0.488058
0.598394 0.8 0.598385
0.598375 0.8 0.699864
0.598374 0.8 0.8
0.598375 0.8 0.900136
0.598394 0.8 1.00162
0.598514 0.8 1.11194
0.598515 0.900117 0.488063
0.598395 0.900132 0.598386
0.598377 0.900136 0.699865
0.598375 0.900136 0.8
0.598377 0.900136 0.900136
0.598395 0.900132 1.00161
0.598515 0.900117 1.11194
0.598529 1.00148 0.488114
0.598412 1.0016 0.598404
0.598395 1.00161 0.699868
0.598394 1.00162 0.8
0.598395 1.00161 0.900132
0.598412 1.0016 1.0016
0.598529 1.00148 1.11189
0.598629 1.11128 0.488721
0.598529 1.11189 0.598522
0.598515 1.11194 0.699884
0.598514 1.11194 0.8
0.598515 1.11194 0.900117
0.598529 1.11189 1.00148
0.598629 1.11128 1.11128
0.699915 0.488681 0.488679
0.699906 0.488067 0.598508
0.699905 0.488014 0.699881
0.699906 0.488009 0.8
0.699915 0.488014 0.900121
0.699991 0.488067 1.00149
0.7 0.488681 1.11132
0.699989 0.598512 0.488066
0.699987 0.598391 0.598388
0.699987 0.598374 0.699865
0.699987 0.598371 0.8
0.699989 0.598373 0.900136
0.699997 0.598389 1.00161
0.7 0.598509 1.11193
0.7 0.699882 0.488014
0.699999 0.699866 0.59837
0.699999 0.699863 0.699862
0.699999 0.699862 0.8
0.7 0.699862 0.900139
0.7 0.699865 1.00163
0.7 0.699881 1.11199
0.7 0.8 0.488009
0.7 0.8 0.598368
0.7 0.8 0.699861
0.7 0.8 0.8
0.7 0.8 0.900139
0.7 0.8 1.00163
0.7 0.8 1.11199
0.7 0.900119 0.488014
0.7 0.900135 0.59837
0.7 0.900138 0.699862
0.7 0.900139 0.8
0.7 0.900138 0.900138
0.7 0.900135 1.00163
0.7 0.900119 1.11199
0.7 1.00149 0.488067
0.7 1.00161 0.598388
0.7 1.00163 0.699865
0.7 1.00163 0.8
0.7 1.00163 0.900135
0.7 1.00161 1.00161
0.7 1.00149 1.11193
0.7 1.11132 0.488681
0.7 1.11193 0.598509
0.7 1.11199 0.699881
0.7 1.11199 0.8
0.7 1.11199 0.900119
0.7 1.11193 1.00149
0.7 1.11132 1.11132
0.800192 0.48872 0.488687
0.800221 0.488113 0.598512
0.800226 0.488061 0.699883
0.800232 0.488057 0.800007
0.800303 0.488061 0.900154
0.801399 0.488114 1.00152
0.801367 0.488721 1.11128
0.80139 0.598555 0.488105
0.801492 0.598443 0.598401
0.801507 0.598426 0.699867
0.801511 0.598424 0.800002
0.801523 0.59842 0.90014
0.801572 0.598411 1.0016
0.801469 0.598523 1.11189
0.801479 0.699892 0.488061
0.801598 0.699878 0.598386
0.801615 0.699875 0.699864
0.801617 0.699874 0.8
0.801617 0.699873 0.900137
0.801603 0.69987 1.00162
0.801485 0.699884 1.11194
0.801486 0.8 0.488057
0.801605 0.800001 0.598384
0.801623 0.800001 0.699864
0.801626 0.800001 0.8
0.801624 0.8 0.900136
0.801606 0.8 1.00162
0.801486 0.8 1.11194
0.801485 0.900117 0.488062
0.801605 0.900133 0.598386
0.801623 0.900136 0.699865
0.801624 0.900136 0.8
0.801623 0.900136 0.900136
0.801605 0.900133 1.00161
0.801485 0.900117 1.11194
0.801471 1.00148 0.488114
0.801588 1.0016 0.598404
0.801605 1.00161 0.699868
0.801606 1.00162 0.8
0.801605 1.00161 0.900132
0.801588 1.0016 1.0016
0.801471 1.00148 1.11189
0.801371 1.11128 0.488721
0.801471 1.11189 0.598522
0.801485 1.11194 0.699884
0.801486 1.11194 0.8
0.801485 1.11194 0.900117
0.801471 1.11189 1.00148
0.801371 1.11128 1.11128
0.901685 0.489145 0.488787
0.901837 0.488609 0.598541
0.901858 0.488565 0.699896
0.901886 0.488562 0.800081
0.902098 0.488563 0.900443
0.910944 0.488718 1.00184
0.910749 0.489248 1.11082
0.910873 0.599057 0.488644
0.911413 0.599018 0.598505
0.911459 0.599008 0.699883
0.911469 0.599001 0.800019
0.911521 0.598948 0.900184
0.91182 0.598587 1.00156
0.911276 0.598627 1.1113
0.91132 0.699981 0.488672
0.911933 0.699984 0.598505
0.911987 0.699983 0.699881
0.911992 0.69998 0.800001
0.911988 0.699966 0.900124
0.911935 0.699901 1.0015
0.911321 0.699898 1.11132
0.911325 0.800008 0.488673
0.911941 0.800011 0.598506
0.911995 0.800011 0.69988
0.912 0.800011 0.8
0.911995 0.800008 0.90012
0.911941 0.800002 1.00149
0.911325 0.8 1.11133
0.911322 0.900104 0.488677
0.911938 0.900118 0.598507
0.911991 0.90012 0.699881
0.911995 0.90012 0.8
0.911991 0.900119 0.900119
0.911938 0.900117 1.00149
0.911322 0.900104 1.11132
0.911279 1.00138 0.48872
0.911886 1.00148 0.598522
0.911938 1.00149 0.699884
0.911942 1.00149 0.8
0.911938 1.00149 0.900117
0.911886 1.00148 1.00148
0.911279 1.00138 1.11128
0.910752 1.11075 0.489248
0.911279 1.11128 0.598623
0.911322 1.11132 0.699896
0.911325 1.11133 0.8
0.911322 1.11132 0.900103
0.911279 1.11128 1.00138
0.910752 1.11075 1.11075
1.01085 0.499528 0.489658
1.01139 0.499445 0.598706
1.01144 0.499437 0.699986
1.01144 0.499436 0.801197
1.01149 0.49944 0.909889
VERTICES 250 500
1 0
1 1
1 2
1 3
1 4
1 5
1 6
1 7
1 8
1 9
1 10
1 11
1 12
1 13
1 14
1 15
1 16
1 17
1 18
1 19
1 20
1 21
1 22
1 23
1 24
1 25
1 26
1 27
1 28
1 29
1 30
1 31
1 32
1 33
1 34
1 35
1 36
1 37
1 38
1 39
1 40
1 41
1 42
1 43
1 44
1 45
1 46
1 47
1 48
1 49
1 50
1 51
1 52
1 53
1 54
1 55
1 56
1 57
1 58
1 59
1 60
1 61
1 62
1 63
1 64
1 65
1 66
1 67
1 68
1 69
1 70
1 71
1 72
1 73
1 74
1 75
1 76
1 77
1 78
1 79
1 80
1 81
1 82
1 83
1 84
1 85
1 86
1 87
1 88
1 89
1 90
1 91
1 92
1 93
1 94
1 95
1 96
1 97
1 98
1 99
1 100
1 101
1 102
1 103
1 104
1 105
1 106
1 107
1 108
1 109
1 110
1 111
1 112
1 113
1 114
1 115
1 116
1 117
1 118
1 119
1 120
1 121
1 122
1 123
1 124
1 125
1 126
1 127
1 128
1 129
1 130
1 131
1 132
1 133
1 134
1 135
1 136
1 137
1 138
1 139
1 140
1 141
1 142
1 143
1 144
1 145
1 146
1 147
1 148
1 149
1 150
1 151
1 152
1 153
1 154
1 155
1 156
1 157
1 158
1 159
1 160
1 161
1 162
1 163
1 164
1 165
1 166
1 167
1 168
1 169
1 170
1 171
1 172
1 173
1 174
1 175
1 176
1 177
1 178
1 179
1 180
1 181
1 182
1 183
1 184
1 185
1 186
1 187
1 188
1 189
1 190
1 191
1 192
1 193
1 194
1 195
1 196
1 197
1 198
1 199
1 200
1 201
1 202
1 203
1 204
1 205
1 206
1 207
1 208
1 209
1 210
1 211
1 212
1 213
1 214
1 215
1 216
1 217
1 218
1 219
1 220
1 221
1 222
1 223
1 224
1 225
1 226
1 227
1 228
1 229
1 230
1 231
1 232
1 233
1 234
1 235
1 236
1 237
1 238
1 239
1 240
1 241
1 242
1 243
1 244
1 245
1 246
1 247
1 248
1 249
POINT_DATA 250
VECTORS velocity float
-0.0960741 -0.0960783 -0.0960786
-0.100707 -0.100712 -0.022752
-0.101316 -0.101322 -0.00255096
-0.10138 -0.101386 -3.4142e-07
-0.101314 -0.101322 0.00254859
-0.100704 -0.100712 0.0227529
-0.0960704 -0.0960784 0.0960791
-0.100704 -0.0227517 -0.100712
-0.106071 -0.0242021 -0.0242028
-0.106787 -0.0244558 -0.00281427
-0.106865 -0.0244859 3.69492e-07
-0.106786 -0.0244559 0.00281816
-0.10607 -0.0242026 0.0241986
-0.100703 -0.0227519 0.100715
-0.101311 -0.00255043 -0.101322
-0.106785 -0.00281448 -0.0244563
-0.107525 -0.00286923 -0.00286952
-0.107607 -0.0028756 -1.02671e-06
-0.107525 -0.00286944 0.00286707
-0.106784 -0.00281413 0.0244603
-0.101311 -0.00255045 0.10132
-0.101376 -3.45457e-07 -0.101386
-0.106863 7.64198e-07 -0.0244864
-0.107606 -8.61525e-07 -0.00287584
-0.107689 -5.04892e-07 -7.21939e-07
-0.107606 -9.47359e-07 0.00287404
-0.106863 3.4916e-07 0.0244892
-0.101375 -4.58421e-07 0.101385
-0.101311 0.00254831 -0.101322
-0.106784 0.00281804 -0.0244562
-0.107524 0.00286705 -0.00286968
-0.107606 0.00287408 -1.09797e-06
-0.107524 0.00286722 0.00286716
-0.106784 0.00281805 0.0244602
-0.101311 0.00254765 0.10132
-0.100702 0.0227526 -0.100712
-0.106069 0.0241984 -0.0242027
-0.106784 0.0244602 -0.00281432
-0.106862 0.0244892 2.45554e-07
-0.106784 0.0244602 0.00281801
-0.106069 0.0241983 0.0241983
-0.100702 0.0227533 0.100714
-0.09607 0.0960789 -0.0960784
-0.100702 0.100714 -0.022752
-0.101311 0.10132 -0.0025505
-0.101375 0.101385 -5.15795e-07
-0.101311 0.10132 0.00254762
-0.100702 0.100714 0.0227533
-0.0960702 0.0960788 0.0960788
-0.0227133 -0.100706 -0.10071
-0.0241517 -0.106074 -0.0242008
-0.0244021 -0.106789 -0.00281388
-0.0244277 -0.106867 2.14753e-06
-0.0243824 -0.106789 0.00282133
-0.0240332 -0.106073 0.0241987
-0.0225972 -0.100706 0.10071
-0.0240364 -0.0241953 -0.106075
-0.025678 -0.0258643 -0.0258697
-0.0259721 -0.026167 -0.00313155
-0.0260059 -0.026205 8.82141e-07
-0.0259648 -0.0261679 0.00313416
-0.0256546 -0.0258679 0.0258708
-0.0240164 -0.0241984 0.106073
-0.024264 -0.00281231 -0.106789
-0.0259461 -0.00312922 -0.0261721
-0.0262547 -0.00319609 -0.00319864
-0.0262896 -0.00320378 1.01663e-06
-0.0262537 -0.00319689 0.00319997
-0.025944 -0.00313027 0.026173
-0.0242625 -0.0028138 0.106789
-0.0242905 1.48818e-06 -0.106867
-0.0259783 1.06625e-06 -0.02621
-0.026288 1.57112e-06 -0.0032057
-0.0263248 1.22049e-06 2.46233e-07
-0.0262877 1.23858e-06 0.00320769
-0.0259777 4.18753e-07 0.0262092
-0.0242903 9.07799e-07 0.106866
-0.024262 0.00281675 -0.106789
-0.0259436 0.00313282 -0.026172
-0.0262519 0.00319994 -0.00319814
-0.0262873 0.00320781 1.90861e-07
-0.0262517 0.00319996 0.00319981
-0.0259434 0.00313272 0.026172
-0.024262 0.00281658 0.106789
-0.0240155 0.0241942 -0.106074
-0.0256502 0.0258693 -0.0258688
-0.0259433 0.0261721 -0.00313121
-0.0259773 0.0262091 -7.8622e-08
-0.0259434 0.0261721 0.00313261
-0.0256501 0.0258691 0.0258691
-0.0240153 0.0241941 0.106072
-0.0225957 0.100709 -0.100706
-0.0240153 0.106073 -0.0241989
-0.0242618 0.106789 -0.00281366
-0.02429 0.106866 4.73461e-07
-0.0242618 0.106789 0.0028165
-0.0240156 0.106072 0.024194
-0.0225957 0.100709 0.100709
-0.00214161 -0.101244 -0.101298
-0.00232614 -0.106705 -0.0244433
-0.00235841 -0.107441 -0.00286515
-0.0023474 -0.107522 1.4272e-05
-0.00215732 -0.107441 0.00292147
-0.000195428 -0.106704 0.0244869
-1.65838e-05 -0.101244 0.101254
-0.000215703 -0.0243719 -0.106717
-0.000257907 -0.0260727 -0.0261382
-0.000266163 -0.0263867 -0.00319038
-0.000260478 -0.0264254 7.45212e-06
-0.00021882 -0.0263971 0.00320394
-5.51677e-05 -0.0261204 0.0261466
-9.75223e-06 -0.0244199 0.106709
-2.92458e-05 -0.00284659 -0.107442
-3.48781e-05 -0.00317237 -0.0264505
-3.73286e-05 -0.00323955 -0.00325729
-3.57825e-05 -0.00324987 2.27578e-06
-2.77608e-05 -0.00324382 0.00326072
-1.17346e-05 -0.00318487 0.0264503
-3.24858e-06 -0.00285906 0.107441
-4.81537e-06 4.36856e-06 -0.107521
-6.12065e-06 6.62258e-06 -0.0264876
-6.47419e-06 7.06703e-06 -0.00326642
-5.71132e-06 6.77654e-06 2.90349e-07
-4.27735e-06 4.97404e-06 0.00326712
-2.29116e-06 2.56315e-06 0.0264882
-9.69398e-07 1.73738e-07 0.10752
-1.07871e-06 0.00286016 -0.107439
-1.00202e-06 0.00318985 -0.0264488
-3.9089e-07 0.00325895 -0.00325716
-5.68918e-07 0.00326727 -9.73499e-08
-1.54e-07 0.00325871 0.00325853
-6.27242e-07 0.00318942 0.0264471
-3.8622e-07 0.00285965 0.107439
-4.39575e-07 0.0244199 -0.106703
-2.63122e-08 0.0261336 -0.0261323
-2.08995e-07 0.0264475 -0.0031892
-1.08485e-07 0.0264877 -7.28252e-08
-1.54466e-07 0.0264473 0.00318947
6.14076e-08 0.0261334 0.026133
-2.26873e-07 0.0244198 0.106703
4.80693e-07 0.101244 -0.101244
-2.18524e-07 0.106703 -0.0244208
-2.46803e-07 0.107439 -0.00286091
1.60949e-07 0.10752 -4.88349e-07
-2.31902e-07 0.107439 0.00285945
2.51207e-08 0.106703 0.0244197
5.0175e-07 0.101244 0.101244
0.0036218 -0.100719 -0.101214
0.00407229 -0.106098 -0.0244038
0.00416362 -0.106814 -0.00283576
0.00425789 -0.106892 0.000114423
0.00517607 -0.106815 0.00339237
0.0230856 -0.10607 0.0248073
0.0225533 -0.100705 0.100804
0.0229664 -0.0237407 -0.106173
0.0244271 -0.0253409 -0.0259068
0.0246942 -0.0256269 -0.00313805
0.0247465 -0.0256702 4.13493e-05
0.0248806 -0.0257043 0.00322969
0.0254536 -0.025791 0.0259768
0.0239979 -0.0241906 0.106106
0.0242072 -0.0026948 -0.106804
0.0258707 -0.00298601 -0.0261802
0.0261745 -0.0030488 -0.00319922
0.0262143 -0.00306127 9.3166e-06
0.026193 -0.00307708 0.00321314
0.0259234 -0.00309885 0.0261892
0.0242574 -0.00280859 0.106795
0.0242835 3.07446e-05 -0.106869
0.0259692 3.87553e-05 -0.0262116
0.0262789 4.10504e-05 -0.00320614
0.0263164 3.91035e-05 2.14939e-06
0.0262805 3.14754e-05 0.00320968
0.0259735 1.25564e-05 0.0262117
0.0242887 4.04983e-06 0.106868
0.0242606 0.00281827 -0.106789
0.0259431 0.00313427 -0.0261721
0.0262493 0.00320192 -0.00319864
0.0262859 0.00320945 8.1224e-07
0.0262495 0.00320124 0.00320011
0.0259438 0.00313349 0.0261727
0.024261 0.00281684 0.106789
0.0240155 0.0241946 -0.106074
0.0256491 0.0258704 -0.025869
0.0259436 0.0261732 -0.00313125
0.0259762 0.0262101 -1.29726e-08
0.0259438 0.0261726 0.0031327
0.0256492 0.0258694 0.0258691
0.0240153 0.0241944 0.106072
0.0225962 0.100709 -0.100706
0.0240153 0.106073 -0.0241989
0.0242611 0.106789 -0.00281367
0.0242892 0.106866 4.85189e-07
0.0242611 0.106789 0.00281654
0.0240153 0.106072 0.0241942
0.0225962 0.100709 0.100709
0.0242184 -0.0976469 -0.100224
0.0259871 -0.102411 -0.0239664
0.026326 -0.103041 -0.00256388
0.0267278 -0.103092 0.00119043
0.02676 -0.103066 0.00501419
0.0987063 -0.100786 0.0266448
0.0960817 -0.0960705 0.0970507
0.0976958 -0.0196569 -0.101385
0.102448 -0.0206447 -0.0244135
0.103118 -0.0208425 -0.00281128
0.103257 -0.0209408 0.000261045
0.103587 -0.0212539 0.00332503
0.105536 -0.023696 0.024929
0.100687 -0.0227211 0.100926
0.101367 -0.00127834 -0.101372
0.106839 -0.00133769 -0.0244847
0.107578 -0.00136433 -0.00287392
0.107662 -0.00139139 3.22819e-05
0.107583 -0.00157591 0.00291696
0.106776 -0.0025914 0.0245161
0.101307 -0.00252974 0.101346
0.101372 0.000182602 -0.101393
0.106857 0.000224182 -0.0244907
0.1076 0.000229976 -0.00287619
0.107683 0.000223617 4.06569e-06
0.107602 0.000187128 0.00288165
0.106861 5.16086e-05 0.0244965
0.101375 8.14051e-06 0.101389
0.101311 0.00256238 -0.101323
0.106783 0.00283689 -0.0244569
0.107523 0.00288581 -0.0028697
0.107605 0.00289297 -2.61983e-07
0.107523 0.00288103 0.00286773
0.106784 0.00282155 0.0244613
0.101311 0.00254896 0.10132
0.100702 0.022754 -0.100712
0.106069 0.0242005 -0.0242028
0.106784 0.0244632 -0.00281432
0.106862 0.024491 3.64114e-07
0.106784 0.0244621 0.00281816
0.106069 0.0241989 0.0241985
0.100702 0.0227527 0.100715
0.0960693 0.0960792 -0.0960784
0.100702 0.100715 -0.0227521
0.101311 0.10132 -0.00255052
0.101376 0.101386 -4.94208e-07
0.101311 0.10132 0.00254814
0.100702 0.100715 0.0227525
0.0960695 0.0960791 0.0960791
0.0974685 -0.00363428 -0.0928026
0.102315 -0.00439707 -0.0215531
0.10296 -0.0044877 -0.000265235
0.103049 -0.00449753 0.0202667
0.103804 -0.00442691 0.0893437
VECTORS force float
-0.30067 -0.300723 -0.300728
-0.314133 -0.314192 -0.238272
-0.319565 -0.319642 -0.0502368
-0.320503 -0.320576 -1.91282e-07
-0.319546 -0.319641 0.0502059
-0.314052 -0.314193 0.238296
-0.300584 -0.300723 0.300727
-0.314058 -0.23827 -0.314195
-0.330054 -0.250286 -0.250294
-0.336327 -0.253676 -0.0545089
-0.337435 -0.254231 1.61696e-05
-0.336319 -0.25368 0.05451
-0.330036 -0.250294 0.250291
-0.314031 -0.238275 0.314204
-0.31947 -0.0502299 -0.319642
-0.336301 -0.0545125 -0.253685
-0.342877 -0.0555275 -0.0555258
-0.344032 -0.0556673 -1.17819e-05
-0.342873 -0.0555249 0.0555126
-0.336298 -0.0545054 0.253716
-0.319463 -0.0502306 0.319627
-0.3204 -6.77945e-07 -0.320576
-0.337403 2.1573e-05 -0.254238
-0.344026 -8.09903e-06 -0.0556659
-0.345197 -4.28391e-06 -8.15776e-06
-0.344025 -1.13619e-05 0.0556562
-0.337402 1.5787e-05 0.254248
-0.320399 -4.43999e-06 0.320571
-0.319463 0.0502009 -0.319641
-0.336295 0.0545082 -0.253684
-0.342869 0.0555122 -0.0555269
-0.344024 0.0556563 -1.23493e-05
-0.342868 0.0555135 0.0555131
-0.336295 0.0545088 0.253715
-0.319462 0.0502045 0.319627
-0.31403 0.238291 -0.314194
-0.330023 0.250288 -0.250293
-0.336295 0.253715 -0.0545092
-0.337401 0.254248 1.50897e-05
-0.336295 0.253716 0.0545085
-0.330023 0.250287 0.250287
-0.31403 0.238289 0.314203
-0.30058 0.300726 -0.300723
-0.314029 0.314203 -0.238275
-0.319463 0.319627 -0.050231
-0.320399 0.320571 -4.73354e-06
-0.319463 0.319627 0.0502044
-0.314029 0.314203 0.238289
-0.300581 0.300727 0.300727
-0.237512 -0.314088 -0.314162
-0.249323 -0.330093 -0.250277
-0.252673 -0.336384 -0.0545025
-0.253157 -0.337484 4.69633e-05
-0.25223 -0.336383 0.05459
-0.2461 -0.330087 0.250327
-0.234274 -0.314086 0.314119
-0.246139 -0.250158 -0.33011
-0.259102 -0.26368 -0.26379
-0.262871 -0.267575 -0.0594925
-0.263478 -0.268252 1.86036e-05
-0.262743 -0.267588 0.0595329
-0.25864 -0.263757 0.263775
-0.245697 -0.250229 0.3301
-0.248939 -0.0544787 -0.336384
-0.262327 -0.0594681 -0.267673
-0.266249 -0.0606981 -0.0607324
-0.266867 -0.0608485 2.42439e-05
-0.2662 -0.0607103 0.0607071
-0.262277 -0.0594795 0.267697
-0.248932 -0.0544951 0.336379
-0.249459 3.06702e-05 -0.337481
-0.262899 1.85916e-05 -0.268342
-0.266817 3.1108e-05 -0.0608823
-0.26748 1.58268e-05 6.60357e-06
-0.266814 2.51822e-05 0.0609003
-0.262893 8.9411e-06 0.268324
-0.249459 2.14323e-05 0.337486
-0.248927 0.0544795 -0.336379
-0.262271 0.059511 -0.267671
-0.266181 0.0606988 -0.0607281
-0.266812 0.0609004 1.56065e-05
-0.266179 0.0607026 0.0607018
-0.262271 0.0595107 0.267694
-0.248927 0.0544786 0.336374
-0.245689 0.250232 -0.330086
-0.258524 0.263752 -0.263779
-0.26227 0.267696 -0.0594859
-0.262891 0.268324 3.19349e-06
-0.26227 0.267694 0.0595107
-0.258523 0.263751 0.263751
-0.245688 0.250231 0.330091
-0.234263 0.314101 -0.314086
-0.245688 0.330091 -0.250234
-0.248927 0.336374 -0.0544933
-0.249457 0.337486 1.77233e-05
-0.248926 0.336374 0.0544785
-0.24569 0.330091 0.250228
-0.234264 0.314101 0.314103
-0.0422728 -0.318497 -0.319349
-0.0452794 -0.33518 -0.253509
-0.0459421 -0.341686 -0.0554619
-0.0458046 -0.342837 0.000239999
-0.0426387 -0.341685 0.0564938
-0.00296516 -0.335159 0.25422
-0.000211927 -0.318489 0.31862
-0.00312604 -0.252245 -0.335316
-0.00365192 -0.266061 -0.267051
-0.00377113 -0.270098 -0.060549
-0.00370092 -0.270765 9.81177e-05
-0.00316598 -0.270227 0.0606927
-0.000651576 -0.26682 0.267171
-0.000106453 -0.253019 0.335205
-0.000345583 -0.0551724 -0.34169
-0.000359904 -0.0603051 -0.27104
-0.00037369 -0.0615366 -0.0617982
-0.000378873 -0.0617535 3.06772e-05
-0.00033513 -0.0615977 0.0618126
-0.000115406 -0.0604806 0.271045
-3.02473e-05 -0.0553314 0.341672
-5.7707e-05 6.32241e-05 -0.342821
-6.35668e-05 7.79718e-05 -0.271703
-8.0329e-05 8.07792e-05 -0.0619813
-5.41159e-05 8.38718e-05 6.76864e-06
-6.23842e-05 6.47182e-05 0.0619726
-2.25319e-05 3.29818e-05 0.271714
-1.12257e-05 2.82511e-06 0.342816
-1.27675e-05 0.0553529 -0.341668
-1.05308e-05 0.0605207 -0.271023
-7.29749e-06 0.061791 -0.0617938
-1.06656e-05 0.0619732 6.70101e-06
-4.43701e-06 0.0617888 0.0617895
-6.67394e-06 0.0605168 0.27102
-8.05232e-06 0.0553491 0.341658
-7.71282e-06 0.252995 -0.335151
-3.72229e-06 0.266982 -0.266969
-3.51672e-06 0.271023 -0.0605245
-3.47897e-06 0.271712 5.22697e-07
-3.28028e-06 0.271022 0.0605228
-3.28606e-06 0.266981 0.266976
-7.23795e-06 0.252995 0.335149
1.85307e-06 0.318498 -0.31849
-7.35691e-06 0.335149 -0.253027
-7.21259e-06 0.341658 -0.0553472
-6.23911e-07 0.342813 -1.83296e-06
-7.1453e-06 0.341658 0.0553482
-4.79403e-06 0.335149 0.252994
1.97969e-06 0.318498 0.3185
0.0535166 -0.314423 -0.318947
0.0585203 -0.330633 -0.253187
0.059788 -0.336927 -0.054987
0.0607982 -0.338031 0.00136059
0.0647287 -0.336938 0.0606444
0.240956 -0.330057 0.256827
0.234117 -0.314077 0.315126
0.239428 -0.246545 -0.330816
0.251217 -0.25963 -0.26415
0.254759 -0.263355 -0.059538
0.255444 -0.264026 0.000332975
0.255693 -0.263832 0.0602616
0.257459 -0.263254 0.264601
0.245631 -0.250183 0.330366
0.248839 -0.0532629 -0.336474
0.262081 -0.0579755 -0.267737
0.265964 -0.0591447 -0.060747
0.266623 -0.059354 8.5964e-05
0.266048 -0.0594274 0.0608166
0.262198 -0.0592356 0.267788
0.248917 -0.0544646 0.336431
0.249414 0.000445819 -0.3375
0.262838 0.000463389 -0.26835
0.26677 0.000482842 -0.0608911
0.267414 0.000475691 1.9748e-05
0.266776 0.000445075 0.0609327
0.262872 0.0001597 0.26833
0.249454 5.3689e-05 0.337502
0.248931 0.0544952 -0.33638
0.262272 0.0595682 -0.267672
0.266166 0.0607721 -0.0607323
0.266804 0.0609615 2.31362e-05
0.266168 0.0607233 0.0607065
0.26228 0.0595093 0.267694
0.248937 0.0544771 0.336377
0.245699 0.250235 -0.330086
0.258527 0.263758 -0.26378
0.26228 0.267701 -0.0594862
0.262893 0.26833 3.67301e-06
0.262281 0.267696 0.059511
0.258528 0.263757 0.263751
0.245699 0.250236 0.330091
0.234266 0.314102 -0.314085
0.245699 0.330094 -0.250234
0.248937 0.336377 -0.0544935
0.249454 0.337487 1.77769e-05
0.248937 0.336376 0.0544788
0.245699 0.330091 0.250231
0.234266 0.3141 0.314101
0.229322 -0.313631 -0.31403
0.240935 -0.328141 -0.248613
0.245132 -0.333921 -0.0503884
0.248721 -0.33458 0.0098996
0.219266 -0.333864 0.055814
0.324734 -0.315941 0.241668
0.301 -0.300622 0.309666
0.310657 -0.242397 -0.316291
0.324023 -0.254329 -0.251758
0.330006 -0.257441 -0.0543673
0.331675 -0.258506 0.00219158
0.330699 -0.25676 0.0543687
0.328659 -0.249948 0.25291
0.314044 -0.238165 0.315911
0.321001 -0.0385291 -0.319822
0.338097 -0.0411566 -0.253926
0.344697 -0.0419154 -0.0555894
0.345855 -0.0422174 0.000258608
0.344477 -0.0434667 0.0557575
0.336492 -0.0527681 0.25402
0.319458 -0.0501068 0.319805
0.320383 0.00311469 -0.32065
0.337382 0.00372527 -0.25429
0.344004 0.00379739 -0.0556772
0.34518 0.00374088 4.69456e-05
0.344007 0.0031978 0.055733
0.337397 0.000674557 0.254345
0.320397 0.000100134 0.320598
0.319457 0.0505478 -0.31965
0.336292 0.0549406 -0.253693
0.342861 0.0559595 -0.0555277
0.344023 0.0560816 -4.08734e-06
0.34286 0.0558618 0.0555203
0.336292 0.0546108 0.253729
0.319458 0.0502053 0.319628
0.314024 0.23831 -0.314195
0.330016 0.250322 -0.250294
0.336293 0.253753 -0.0545093
0.337394 0.254287 1.60367e-05
0.336292 0.253743 0.0545099
0.330016 0.250295 0.250289
0.314024 0.238292 0.314203
0.300577 0.300729 -0.300723
0.314024 0.314205 -0.238276
0.319458 0.319629 -0.0502311
0.320399 0.320573 -4.51645e-06
0.319458 0.319627 0.0502047
0.314024 0.314203 0.238289
0.300578 0.300727 0.300727
0.310298 -0.00389811 -0.296088
0.325641 -0.00687492 -0.227341
0.331544 -0.00747043 -0.00376681
0.332802 -0.00754453 0.218615
0.338491 -0.00628157 0.291112
SCALARS mass float 1
LOOKUP_TABLE default
1
1
1
1
1
1
1
1
1
1
1
1
1
1
1
1
1
1
1
1
1
1
1
1
1
1
1
1
1
1
1
1
1
1
1
1
1
1
1
1
1
1
1
1
1
1
1
1
1
1
1
1
1
1
1
1
1
1
1
1
1
1
1
1
1
1
1
1
1
1
1
1
1
1
1
1
1
1
1
1
1
1
1
1
1
1
1
1
1
1
1
1
1
1
1
1
1
1
1
1
1
1
1
1
1
1
1
1
1
1
1
1
1
1
1
1
1
1
1
1
1
1
1
1
1
1
1
1
1
1
1
1
1
1
1
1
1
1
1
1
1
1
1
1
1
1
1
1
1
1
1
1
1
1
1
1
1
1
1
1
1
1
1
1
1
1
1
1
1
1
1
1
1
1
1
1
1
1
1
1
1
1
1
1
1
1
1
1
1
1
1
1
1
1
1
1
1
1
1
1
1
1
1
1
1
1
1
1
1
1
1
1
1
1
1
1
1
1
1
1
1
1
1
1
1
1
1
1
1
1
1
1
1
1
1
1
1
1
1
1
1
1
1
1
1
1
1
1
1
1
