# vtk DataFile Version 3.0
Molecular Dynamics Particle Data
ASCII
DATASET POLYDATA
POINTS 250 float
0.437159 0.437131 0.437128
0.434247 0.434215 0.57179
0.433546 0.43351 0.689254
0.433397 0.43336 0.8
0.433558 0.43351 0.910749
0.434335 0.434214 1.02821
0.437254 0.43713 1.16287
0.434335 0.571795 0.434213
0.430942 0.57053 0.570527
0.430133 0.570084 0.688708
0.429963 0.569966 0.8
0.430137 0.570083 0.911292
0.430952 0.570528 1.02947
0.434346 0.571792 1.16579
0.433648 0.689255 0.433508
0.430147 0.688709 0.57008
0.429295 0.688499 0.688498
0.429117 0.68844 0.8
0.429296 0.688499 0.911502
0.430148 0.688709 1.02992
0.43365 0.689255 1.16649
0.433502 0.8 0.433359
0.429977 0.8 0.569963
0.429119 0.8 0.688439
0.428933 0.8 0.8
0.429119 0.8 0.911561
0.429978 0.8 1.03004
0.433502 0.8 1.16664
0.43365 0.910744 0.433509
0.430149 0.911291 0.57008
0.429297 0.911502 0.688498
0.429119 0.911561 0.8
0.429297 0.911502 0.911502
0.430149 0.911291 1.02992
0.43365 0.910745 1.16649
0.434347 1.02821 0.434214
0.430955 1.02947 0.570528
0.430149 1.02992 0.688709
0.429978 1.03004 0.8
0.430149 1.02992 0.911291
0.430955 1.02947 1.02947
0.434347 1.02821 1.16579
0.437254 1.16287 0.43713
0.434347 1.16579 0.571792
0.43365 1.16649 0.689255
0.433502 1.16664 0.8
0.43365 1.16649 0.910745
0.434347 1.16579 1.02821
0.437254 1.16287 1.16287
0.572343 0.434255 0.434224
0.571142 0.43086 0.570535
0.570723 0.430048 0.688716
0.570625 0.429876 0.800014
0.570846 0.430048 0.911329
0.57286 0.430856 1.02949
0.574075 0.434251 1.16576
0.57284 0.570586 0.43085
0.571552 0.569166 0.569131
0.571115 0.568661 0.688111
0.571008 0.568529 0.800002
0.571141 0.568656 0.911895
0.57167 0.56914 1.03087
0.57296 0.57056 1.16915
0.572573 0.688733 0.430042
0.571252 0.688121 0.568627
0.570796 0.687885 0.687875
0.570683 0.687819 0.8
0.570799 0.687883 0.912126
0.571263 0.688115 1.03137
0.572585 0.688726 1.16996
0.572488 0.800001 0.429871
0.571156 0.800003 0.568495
0.570696 0.800003 0.687809
0.57058 0.800004 0.8
0.570697 0.8 0.912191
0.571156 0.8 1.03151
0.572488 0.8 1.17013
0.572585 0.911274 0.430043
0.571265 0.911888 0.568627
0.57081 0.912125 0.687875
0.570697 0.912191 0.8
0.57081 0.912125 0.912125
0.571265 0.911888 1.03137
0.572585 0.911273 1.16996
0.572962 1.02944 0.430856
0.571696 1.03087 0.569134
0.571265 1.03137 0.688113
0.571156 1.03151 0.8
0.571265 1.03137 0.911888
0.571696 1.03087 1.03087
0.572962 1.02944 1.16915
0.574083 1.16575 0.434251
0.572962 1.16915 0.570559
0.572585 1.16996 0.688726
0.572489 1.17013 0.8
0.572585 1.16996 0.911273
0.572962 1.16915 1.02944
0.574083 1.16575 1.16575
0.692361 0.43373 0.433575
0.692072 0.430247 0.570137
0.691959 0.429406 0.688545
0.691964 0.429227 0.800065
0.692109 0.429406 0.911663
0.699808 0.430257 1.02999
0.699979 0.433733 1.1663
0.699645 0.57038 0.43023
0.69958 0.56893 0.568778
0.699565 0.568414 0.687957
0.69957 0.568278 0.800016
0.699628 0.568395 0.91207
0.699936 0.568812 1.03124
0.699989 0.570261 1.16975
0.699982 0.688628 0.429411
0.699977 0.688004 0.568266
0.699975 0.687763 0.687713
0.699976 0.687693 0.8
0.69998 0.687755 0.912288
0.699993 0.687967 1.03174
0.7 0.688592 1.17059
0.7 0.800013 0.429234
0.699993 0.800015 0.56813
0.699992 0.800017 0.687645
0.699994 0.800016 0.8
0.7 0.800014 0.912355
0.7 0.800003 1.03187
0.7 0.8 1.17076
0.7 0.911413 0.429414
0.7 0.912045 0.568268
0.7 0.912291 0.687715
0.7 0.912359 0.8
0.7 0.912289 0.912285
0.7 0.912041 1.03173
0.7 0.911409 1.17059
0.7 1.02974 0.430256
0.7 1.03121 0.568793
0.7 1.03173 0.687959
0.7 1.03187 0.8
0.7 1.03173 0.912041
0.7 1.03121 1.03121
0.7 1.02974 1.16974
0.7 1.16627 0.433733
0.7 1.16974 0.57026
0.7 1.17059 0.688591
0.7 1.17076 0.8
0.7 1.17059 0.911409
0.7 1.16974 1.02974
0.7 1.16627 1.16627
0.808689 0.434254 0.433624
0.809213 0.430823 0.570183
0.809412 0.430011 0.688639
0.80959 0.429839 0.80027
0.80892 0.429998 0.912102
0.827009 0.430864 1.0301
0.825896 0.434253 1.16591
0.826348 0.5709 0.43076
0.827466 0.569527 0.569092
0.82787 0.569038 0.688114
0.827988 0.568907 0.800041
0.827982 0.569001 0.911974
0.828175 0.569188 1.03097
0.827026 0.570566 1.16918
0.827419 0.688896 0.43003
0.828733 0.688311 0.568619
0.829185 0.688083 0.687874
0.829301 0.688015 0.800006
0.829191 0.688055 0.912136
0.828728 0.688146 1.03139
0.827413 0.68873 1.16997
0.827502 0.800076 0.429868
0.828833 0.800089 0.568493
0.829292 0.800093 0.687808
0.829408 0.800092 0.8
0.829294 0.800077 0.912195
0.828841 0.800019 1.03151
0.827511 0.800003 1.17013
0.827413 0.911299 0.430042
0.828732 0.911919 0.568627
0.829185 0.912158 0.687875
0.829299 0.912224 0.8
0.829186 0.912151 0.912125
0.828735 0.911896 1.03137
0.827415 0.911274 1.16996
0.827037 1.02944 0.430856
0.828303 1.03087 0.569134
0.828735 1.03138 0.688113
0.828843 1.03151 0.8
0.828735 1.03138 0.911888
0.828304 1.03087 1.03087
0.827038 1.02944 1.16915
0.825917 1.16575 0.434251
0.827038 1.16915 0.570559
0.827415 1.16996 0.688726
0.827511 1.17013 0.8
0.827415 1.16996 0.911273
0.827038 1.16915 1.02944
0.825917 1.16575 1.16575
0.929234 0.435872 0.434494
0.930684 0.432857 0.570867
0.93126 0.43212 0.689414
0.931821 0.43201 0.801159
0.929463 0.432285 0.913491
0.96556 0.433577 1.02891
0.962758 0.437144 1.16387
0.962766 0.573316 0.433703
0.965549 0.572325 0.570363
0.96628 0.571916 0.688739
0.966564 0.571708 0.8001
0.966819 0.571559 0.911411
0.968403 0.570943 1.03009
0.965644 0.571815 1.16602
0.966568 0.690174 0.433486
0.970108 0.689777 0.570055
0.970965 0.689587 0.688496
0.971145 0.689506 0.800018
0.970941 0.689463 0.911546
0.969869 0.688874 1.02996
0.966348 0.689272 1.16651
0.966483 0.800562 0.433344
0.970005 0.800653 0.569951
0.970863 0.800667 0.688434
0.971048 0.800659 0.80001
0.970865 0.800585 0.91158
0.97002 0.800096 1.03006
0.966497 0.800009 1.16664
0.966351 0.910951 0.433505
0.969852 0.911536 0.570077
0.970701 0.911753 0.688496
0.970882 0.911809 0.8
0.970701 0.911716 0.911508
0.969852 0.911332 1.02993
0.966351 0.910749 1.16649
0.965652 1.02824 0.434213
0.969044 1.02951 0.570527
0.969852 1.02996 0.688708
0.970022 1.03007 0.8
0.969852 1.02995 0.911292
0.969044 1.02948 1.02947
0.965652 1.02821 1.16579
0.962745 1.16287 0.43713
0.965652 1.16579 0.571792
0.966351 1.16649 0.689255
0.966498 1.16664 0.8
0.966351 1.16649 0.910744
0.965652 1.16579 1.02821
0.962745 1.16287 1.16287
1.06419 0.497222 0.438938
1.06741 0.496565 0.574609
1.0682 0.496431 0.699538
1.06833 0.496416 0.824369
1.06932 0.497015 0.9584
VERTICES 250 500
1 0
1 1
1 2
1 3
1 4
1 5
1 6
1 7
1 8
1 9
1 10
1 11
1 12
1 13
1 14
1 15
1 16
1 17
1 18
1 19
1 20
1 21
1 22
1 23
1 24
1 25
1 26
1 27
1 28
1 29
1 30
1 31
1 32
1 33
1 34
1 35
1 36
1 37
1 38
1 39
1 40
1 41
1 42
1 43
1 44
1 45
1 46
1 47
1 48
1 49
1 50
1 51
1 52
1 53
1 54
1 55
1 56
1 57
1 58
1 59
1 60
1 61
1 62
1 63
1 64
1 65
1 66
1 67
1 68
1 69
1 70
1 71
1 72
1 73
1 74
1 75
1 76
1 77
1 78
1 79
1 80
1 81
1 82
1 83
1 84
1 85
1 86
1 87
1 88
1 89
1 90
1 91
1 92
1 93
1 94
1 95
1 96
1 97
1 98
1 99
1 100
1 101
1 102
1 103
1 104
1 105
1 106
1 107
1 108
1 109
1 110
1 111
1 112
1 113
1 114
1 115
1 116
1 117
1 118
1 119
1 120
1 121
1 122
1 123
1 124
1 125
1 126
1 127
1 128
1 129
1 130
1 131
1 132
1 133
1 134
1 135
1 136
1 137
1 138
1 139
1 140
1 141
1 142
1 143
1 144
1 145
1 146
1 147
1 148
1 149
1 150
1 151
1 152
1 153
1 154
1 155
1 156
1 157
1 158
1 159
1 160
1 161
1 162
1 163
1 164
1 165
1 166
1 167
1 168
1 169
1 170
1 171
1 172
1 173
1 174
1 175
1 176
1 177
1 178
1 179
1 180
1 181
1 182
1 183
1 184
1 185
1 186
1 187
1 188
1 189
1 190
1 191
1 192
1 193
1 194
1 195
1 196
1 197
1 198
1 199
1 200
1 201
1 202
1 203
1 204
1 205
1 206
1 207
1 208
1 209
1 210
1 211
1 212
1 213
1 214
1 215
1 216
1 217
1 218
1 219
1 220
1 221
1 222
1 223
1 224
1 225
1 226
1 227
1 228
1 229
1 230
1 231
1 232
1 233
1 234
1 235
1 236
1 237
1 238
1 239
1 240
1 241
1 242
1 243
1 244
1 245
1 246
1 247
1 248
1 249
POINT_DATA 250
VECTORS velocity float
-0.149447 -0.149688 -0.149714
-0.155932 -0.156197 -0.10014
-0.15837 -0.158658 -0.0532385
-0.159015 -0.159317 5.1428e-06
-0.158277 -0.158659 0.0532688
-0.15518 -0.156212 0.100162
-0.148632 -0.149702 0.149709
-0.15518 -0.100105 -0.156218
-0.162799 -0.103617 -0.103645
-0.165558 -0.105329 -0.0551015
-0.166283 -0.105882 1.05203e-05
-0.165536 -0.105334 0.0551018
-0.162724 -0.103637 0.103649
-0.155098 -0.100126 0.156218
-0.157506 -0.0532256 -0.158676
-0.165467 -0.0550942 -0.105355
-0.168392 -0.0560007 -0.05601
-0.169154 -0.056304 -5.41622e-06
-0.168388 -0.0560022 0.0560167
-0.165457 -0.0550989 0.105355
-0.157496 -0.0532302 0.158674
-0.158135 -5.51253e-06 -0.159335
-0.166183 1.08338e-05 -0.105907
-0.169141 -1.74943e-06 -0.0563127
-0.169934 8.64607e-07 -3.29344e-06
-0.169141 -3.40936e-06 0.0563147
-0.166181 8.21356e-06 0.105905
-0.158134 -9.32037e-06 0.159334
-0.157495 0.0532358 -0.158675
-0.165454 0.0550958 -0.105354
-0.168378 0.0560152 -0.0560094
-0.169141 0.0563147 -6.29998e-06
-0.168378 0.0560153 0.0560151
-0.165454 0.0550953 0.105353
-0.157495 0.0532361 0.158674
-0.155095 0.100125 -0.156213
-0.162703 0.103643 -0.103642
-0.165454 0.105354 -0.0551003
-0.166181 0.105905 6.04612e-06
-0.165454 0.105353 0.0550955
-0.162703 0.103643 0.103643
-0.155095 0.100125 0.156216
-0.148625 0.149704 -0.149702
-0.155095 0.156216 -0.100127
-0.157495 0.158674 -0.0532305
-0.158134 0.159334 -9.86752e-06
-0.157495 0.158674 0.0532362
-0.155095 0.156216 0.100125
-0.148625 0.149704 0.149704
-0.0957062 -0.15594 -0.15615
-0.0988536 -0.163557 -0.103584
-0.100384 -0.166354 -0.0550372
-0.100824 -0.167094 9.19385e-05
-0.0998446 -0.166354 0.0553397
-0.0876092 -0.163593 0.103788
-0.0843589 -0.155979 0.156024
-0.0877928 -0.103257 -0.163631
-0.0910832 -0.107126 -0.107337
-0.0925816 -0.109017 -0.057024
-0.0930302 -0.109626 3.28132e-05
-0.0924617 -0.109047 0.0570513
-0.0904716 -0.107288 0.107362
-0.0871821 -0.103427 0.163605
-0.08851 -0.0549336 -0.166401
-0.091871 -0.0569577 -0.109227
-0.0934251 -0.057949 -0.0580113
-0.0938951 -0.0582813 9.32572e-06
-0.0934154 -0.0579593 0.058013
-0.0918297 -0.0570034 0.109232
-0.0884653 -0.0549759 0.166399
-0.0888674 3.14162e-05 -0.167137
-0.0922721 3.51838e-05 -0.109836
-0.0938437 3.52987e-05 -0.0583397
-0.094327 3.67448e-05 6.6007e-06
-0.0938396 3.04384e-05 0.0583381
-0.0922698 1.4863e-05 0.109837
-0.088868 4.93729e-06 0.167137
-0.0884645 0.0549732 -0.166396
-0.0918176 0.0570158 -0.109224
-0.0933686 0.0580082 -0.0580086
-0.0938398 0.05834 3.06259e-06
-0.0933677 0.0580066 0.0580062
-0.0918166 0.0570137 0.109226
-0.0884638 0.0549727 0.166396
-0.0871644 0.103432 -0.163596
-0.0903486 0.107317 -0.107318
-0.0918169 0.109227 -0.0570136
-0.0922687 0.109837 5.27134e-06
-0.0918167 0.109226 0.0570132
-0.0903485 0.107317 0.107317
-0.0871641 0.103432 0.163595
-0.0843161 0.155983 -0.155979
-0.0871643 0.163596 -0.10343
-0.088464 0.166396 -0.0549772
-0.0888677 0.167137 2.69621e-06
-0.0884639 0.166395 0.0549726
-0.0871643 0.163595 0.103432
-0.0843161 0.155982 0.155982
-0.0340645 -0.157544 -0.158312
-0.0348566 -0.165429 -0.105007
-0.0352787 -0.168326 -0.0556801
-0.0352544 -0.169093 0.000376233
-0.0362284 -0.16833 0.0567616
0.000103609 -0.165378 0.105561
-3.53087e-05 -0.15753 0.157709
-0.00119019 -0.103883 -0.165495
-0.00143558 -0.107827 -0.108452
-0.00148802 -0.109754 -0.057552
-0.00148469 -0.110375 3.52716e-05
-0.00130074 -0.10981 0.0576844
-0.000207188 -0.108324 0.108534
-2.73391e-05 -0.104381 0.165423
3.6495e-06 -0.0552708 -0.168296
-1.75206e-05 -0.0573275 -0.110369
-2.83968e-05 -0.0583363 -0.0585891
-2.30729e-05 -0.0586741 2.27975e-05
-9.96069e-06 -0.0583717 0.0585897
-2.15571e-05 -0.0575285 0.110376
-1.3799e-05 -0.0554705 0.168288
-2.96276e-05 7.52819e-05 -0.169056
-3.40663e-05 8.67241e-05 -0.110991
-3.51904e-05 9.57795e-05 -0.0589238
-3.4576e-05 9.2241e-05 3.70591e-06
-2.89519e-05 7.86953e-05 0.0589237
-1.35702e-05 3.38885e-05 0.110994
-6.354e-06 7.06243e-06 0.169051
-1.21268e-05 0.0555011 -0.168284
-1.19052e-05 0.0575986 -0.110361
-1.43022e-05 0.0586221 -0.0585829
-1.40764e-05 0.0589613 3.176e-06
-1.22321e-05 0.0586133 0.058582
-4.11045e-06 0.0575637 0.110361
-2.16339e-06 0.0554727 0.168281
-3.16231e-06 0.10439 -0.165384
-3.66676e-06 0.108401 -0.108396
-2.4444e-06 0.110366 -0.0575594
-3.69507e-06 0.110995 -1.96018e-07
-1.39593e-06 0.110364 0.057561
-1.79485e-06 0.108396 0.108396
-1.39338e-06 0.104386 0.165383
9.55048e-07 0.157533 -0.157533
-1.31892e-06 0.165384 -0.10439
-1.5135e-06 0.168282 -0.0554708
-7.08051e-07 0.16905 -3.34153e-06
-1.35937e-06 0.168282 0.0554726
-9.90432e-07 0.165384 0.104386
1.19491e-06 0.157533 0.157533
0.0365848 -0.155729 -0.158223
0.0380839 -0.163522 -0.104822
0.0388588 -0.166312 -0.0551826
0.0397488 -0.167051 0.00129562
0.0333737 -0.166395 0.0582303
0.0893411 -0.16355 0.104906
0.0842733 -0.155965 0.15668
0.0853238 -0.102805 -0.163898
0.0880177 -0.106565 -0.107444
0.089385 -0.108422 -0.0569781
0.0898574 -0.109022 0.000145532
0.0896703 -0.108428 0.0572406
0.0899904 -0.107219 0.107644
0.0871313 -0.103411 0.163744
0.08862 -0.0543694 -0.16643
0.0919772 -0.0563179 -0.109251
0.0935284 -0.0572747 -0.0580069
0.0940059 -0.0576013 2.16732e-05
0.0935186 -0.0573472 0.0580487
0.0918125 -0.0569072 0.109267
0.0884596 -0.0549666 0.16642
0.0888306 0.00036862 -0.16715
0.0922234 0.000432287 -0.109848
0.0937926 0.000449326 -0.0583451
0.0942769 0.000448991 2.21159e-05
0.0938008 0.000386908 0.0583543
0.0922595 5.59272e-05 0.109853
0.0888669 2.78986e-05 0.167144
0.0884495 0.0551492 -0.1664
0.0917985 0.0572205 -0.109228
0.0933426 0.0582248 -0.0580115
0.0938184 0.0585524 8.89669e-06
0.0933467 0.0581878 0.0580136
0.091814 0.0570677 0.109232
0.0884645 0.0549773 0.166397
0.08716 0.103469 -0.163597
0.0903435 0.107361 -0.107319
0.0918133 0.109275 -0.0570146
0.0922627 0.109883 6.68401e-06
0.0918142 0.109263 0.0570152
0.0903469 0.107328 0.107318
0.0871636 0.103432 0.163596
0.0843151 0.155985 -0.155979
0.0871634 0.163599 -0.10343
0.0884647 0.166399 -0.0549771
0.0888672 0.16714 3.11302e-06
0.0884648 0.166398 0.0549731
0.0871638 0.163596 0.103432
0.0843154 0.155983 0.155983
0.102605 -0.152714 -0.155522
0.106481 -0.15946 -0.102015
0.108656 -0.162008 -0.0519401
0.111058 -0.162506 0.00431505
0.0989138 -0.160918 0.0623515
0.15765 -0.160282 0.0963663
0.14864 -0.149641 0.152712
0.14181 -0.0951683 -0.157869
0.147199 -0.0979727 -0.10413
0.149594 -0.0996083 -0.0552345
0.151027 -0.100668 -0.000615479
0.152761 -0.101701 0.0546551
0.159245 -0.101771 0.106061
0.155072 -0.10007 0.157068
0.158666 -0.0513156 -0.158681
0.166865 -0.0528316 -0.105409
0.169832 -0.0536792 -0.0560193
0.17059 -0.0540746 4.56457e-05
0.169673 -0.0539717 0.0561161
0.165571 -0.0546282 0.105419
0.157488 -0.0531771 0.158726
0.158026 0.00225429 -0.159405
0.166055 0.00259661 -0.105967
0.169014 0.00264987 -0.0563309
0.169801 0.00261464 3.71606e-05
0.169026 0.00238653 0.0564056
0.166168 0.000335698 0.106009
0.158132 2.62665e-05 0.159355
0.1575 0.0546402 -0.158697
0.165461 0.0567251 -0.105377
0.168378 0.0576817 -0.0560226
0.16915 0.0579663 1.46532e-05
0.168377 0.0574616 0.0560534
0.165457 0.0553379 0.105392
0.157496 0.0532667 0.158679
0.155094 0.100403 -0.156217
0.162701 0.103968 -0.103646
0.165455 0.105695 -0.0551024
0.166177 0.106243 1.05463e-05
0.165455 0.105639 0.0551041
0.162701 0.103703 0.10365
0.155095 0.100131 0.156218
0.148625 0.149717 -0.149703
0.155095 0.156231 -0.100127
0.157495 0.158688 -0.0532307
0.158133 0.159349 -9.72072e-06
0.157495 0.158684 0.0532363
0.155095 0.15622 0.100127
0.148626 0.149705 0.149704
0.156298 -0.0108381 -0.145857
0.164263 -0.0129887 -0.0837606
0.167209 -0.0136261 -0.00153241
0.167364 -0.0136003 0.0809423
0.171511 -0.00909569 0.137962
VECTORS force float
-0.0543025 -0.0559599 -0.056112
-0.0547007 -0.0564364 -0.106647
-0.0571204 -0.0589665 -0.0943482
-0.0580598 -0.0599782 8.03577e-05
-0.0566946 -0.0589771 0.0944883
-0.0502941 -0.0565472 0.106791
-0.0494526 -0.0560735 0.0561022
-0.0503024 -0.10647 -0.056577
-0.0510739 -0.106835 -0.106971
-0.0535992 -0.108341 -0.093776
-0.0545614 -0.109096 9.55197e-06
-0.0535191 -0.108362 0.0938207
-0.0507453 -0.106936 0.106977
-0.0499405 -0.106577 0.0565693
-0.0522017 -0.094266 -0.0591026
-0.0532056 -0.0937377 -0.10847
-0.055905 -0.0942098 -0.094254
-0.0568901 -0.0945092 4.1309e-06
-0.0558949 -0.0942195 0.0942624
-0.0531749 -0.0937671 0.108463
-0.0521661 -0.0942992 0.0591034
-0.0530521 3.44093e-06 -0.0601136
-0.054133 1.21509e-05 -0.109226
-0.0568497 2.36514e-05 -0.0945486
-0.057907 2.45449e-05 3.64833e-06
-0.0568499 1.96457e-05 0.0945427
-0.0541299 2.09152e-06 0.109223
-0.0530505 -7.92411e-06 0.0601151
-0.0521648 0.0943124 -0.059099
-0.0531667 0.0937887 -0.108467
-0.0558598 0.0942538 -0.0942527
-0.0568496 0.0945425 2.97436e-06
-0.0558592 0.0942523 0.0942519
-0.0531667 0.0937874 0.108463
-0.0521643 0.0943084 0.0591005
-0.0499313 0.106577 -0.0565584
-0.0506676 0.106952 -0.10696
-0.0531666 0.108462 -0.0937728
-0.0541293 0.109223 -5.9949e-06
-0.0531664 0.108463 0.0937884
-0.0506675 0.106954 0.106953
-0.0499312 0.106579 0.0565602
-0.0494218 0.0560752 -0.0560747
-0.0499311 0.0565604 -0.10658
-0.0521645 0.0591011 -0.0942988
-0.0530496 0.0601147 -1.16554e-05
-0.0521644 0.0591005 0.09431
-0.0499313 0.0565602 0.106578
-0.0494215 0.0560751 0.0560751
-0.0831403 -0.0554595 -0.0562882
-0.0826604 -0.056043 -0.106706
-0.0835617 -0.0587791 -0.0934776
-0.0840266 -0.0598402 0.000361171
-0.0841336 -0.0587748 0.0946341
-0.0449517 -0.0562297 0.107543
-0.0453399 -0.0556674 0.0558522
-0.0463631 -0.105604 -0.0563585
-0.0464458 -0.105728 -0.106423
-0.0471407 -0.107243 -0.0926124
-0.0474896 -0.108011 4.38981e-05
-0.0469876 -0.107319 0.0927535
-0.0452558 -0.106289 0.1065
-0.0452634 -0.106193 0.0562803
-0.0457576 -0.093179 -0.0590103
-0.0457454 -0.0923833 -0.10794
-0.0464517 -0.0928039 -0.0930566
-0.0467868 -0.0930865 1.07551e-05
-0.0464515 -0.0928733 0.0930814
-0.0457643 -0.092601 0.107934
-0.0457844 -0.0933614 0.0590075
-0.0460752 8.60852e-05 -0.060066
-0.0461112 6.70532e-05 -0.108711
-0.0468215 6.00425e-05 -0.0933541
-0.047167 5.2567e-05 1.02003e-05
-0.0467854 0.000115775 0.0933537
-0.0460876 4.78489e-05 0.108708
-0.0460866 -9.3904e-06 0.0600632
-0.0457873 0.0934023 -0.0589983
-0.0457612 0.0926701 -0.107928
-0.0464614 0.0931236 -0.0930593
-0.0467986 0.0934174 -1.74501e-06
-0.0464589 0.0930724 0.0930684
-0.0457576 0.0926191 0.107922
-0.0457847 0.0933872 0.0589991
-0.045217 0.106199 -0.056249
-0.0451142 0.106372 -0.106365
-0.0457584 0.107922 -0.0926304
-0.0460887 0.108708 8.58561e-06
-0.0457577 0.107923 0.092618
-0.0451132 0.106373 0.106373
-0.0452162 0.106197 0.0562472
-0.045275 0.0556706 -0.0556719
-0.0452166 0.056248 -0.106198
-0.0457853 0.0589995 -0.0933714
-0.046087 0.0600632 -1.31702e-05
-0.0457852 0.0589989 0.0933849
-0.0452158 0.0562472 0.1062
-0.0452751 0.0556708 0.0556699
-0.0388807 -0.0559532 -0.0579415
-0.038075 -0.0567169 -0.107317
-0.0380024 -0.0595081 -0.0931052
-0.0375238 -0.060576 0.00110886
-0.0510459 -0.0595438 0.0962209
0.00643221 -0.0567444 0.107452
5.26638e-05 -0.05612 0.0567643
-3.02962e-05 -0.105758 -0.0569649
-0.000364381 -0.105832 -0.106368
-0.000398742 -0.107352 -0.0922741
-0.000443797 -0.10812 -3.86713e-05
-0.000490936 -0.107279 0.0925652
3.47341e-05 -0.1063 0.10654
2.20395e-05 -0.106169 0.056874
0.000337273 -0.0926201 -0.0595963
0.000375284 -0.0918158 -0.107899
0.000377076 -0.0922001 -0.0928237
0.000375173 -0.0924669 2.79317e-05
0.000315828 -0.0922413 0.0928342
4.54153e-05 -0.0923177 0.107887
-6.29447e-06 -0.0931868 0.0595928
-5.47653e-05 0.000235589 -0.0606758
-1.65716e-05 0.000304684 -0.108681
-1.11726e-05 0.000316026 -0.0930986
-2.94481e-05 0.000321336 3.73535e-06
-3.62329e-05 0.000258435 0.0931211
-1.70705e-05 3.53444e-05 0.10867
-7.86788e-06 1.86465e-05 0.0606705
-3.28168e-05 0.0933255 -0.0595847
-2.74989e-05 0.0925486 -0.107884
-3.17818e-05 0.092984 -0.0928232
-3.45137e-05 0.0932656 2.68456e-06
-3.96247e-05 0.092964 0.0928378
-1.11112e-05 0.0924396 0.107876
-1.66339e-06 0.0931868 0.0595838
-9.46294e-06 0.106217 -0.0567826
-1.22717e-05 0.106358 -0.106332
-1.14362e-05 0.107921 -0.0923873
-1.26118e-05 0.108703 1.93725e-06
-8.19642e-06 0.107909 0.0923969
-4.05698e-06 0.106325 0.106324
-7.70528e-07 0.106184 0.056784
-1.12999e-06 0.0561379 -0.0561369
-1.06505e-06 0.0567865 -0.106189
-2.40686e-07 0.0595859 -0.0931787
-1.84684e-06 0.060669 -5.01852e-06
4.08762e-07 0.0595853 0.0931868
-1.04358e-06 0.0567842 0.106184
-1.21889e-07 0.0561368 0.0561367
0.0397355 -0.0532864 -0.0580212
0.0395114 -0.0542921 -0.106802
0.0400409 -0.0569572 -0.091728
0.0428055 -0.0579892 0.00268889
0.020337 -0.0571575 0.0991449
0.056375 -0.0561517 0.10074
0.0452324 -0.0556283 0.0570293
0.0424151 -0.108469 -0.0564951
0.0415194 -0.108644 -0.106346
0.0419412 -0.110292 -0.0924989
0.0423639 -0.111055 0.000156791
0.0425326 -0.109774 0.0926011
0.0444264 -0.106606 0.106555
0.0451488 -0.106191 0.0564841
0.0465024 -0.0928789 -0.0589987
0.0465457 -0.0920663 -0.10793
0.047256 -0.0924425 -0.0930426
0.0476165 -0.0926976 -4.29034e-06
0.0472167 -0.0924015 0.0930663
0.045782 -0.0925789 0.107941
0.0457796 -0.0933188 0.0590201
0.0459973 0.000725357 -0.0600897
0.0459599 0.000829925 -0.108735
0.0466614 0.000878643 -0.0933651
0.0470184 0.000903201 4.65399e-05
0.0467028 0.000832113 0.0933695
0.0460782 4.2898e-05 0.108748
0.0460852 -4.8337e-05 0.0600734
0.0457282 0.094033 -0.0590136
0.0456898 0.0933478 -0.107945
0.0463779 0.0937879 -0.0930614
0.0467238 0.0940749 1.5106e-05
0.0463928 0.0936928 0.0930911
0.045745 0.0927399 0.107946
0.0457836 0.093442 0.0590031
0.0451901 0.106422 -0.0562541
0.0450852 0.106618 -0.10637
0.0457292 0.108204 -0.0926336
0.0460576 0.108983 1.68749e-05
0.0457348 0.108148 0.0926284
0.0451048 0.106436 0.106377
0.0452118 0.106197 0.0562505
0.0452711 0.0556839 -0.0556727
0.0452099 0.0562663 -0.106198
0.0457824 0.0590155 -0.0933713
0.0460836 0.0600802 -1.17272e-05
0.0457832 0.0590104 0.0933842
0.0452121 0.0562536 0.106202
0.0452732 0.0556717 0.0556701
0.103676 -0.0521759 -0.0551764
0.10404 -0.0524928 -0.102135
0.105704 -0.0548881 -0.0890129
0.110872 -0.0558116 0.00950282
0.0862824 -0.0515979 0.100227
0.0588101 -0.0704085 0.0870944
0.0492238 -0.0559406 0.0560567
-0.00990294 -0.0798324 -0.0609031
-0.0133865 -0.0793949 -0.108433
-0.0111979 -0.081568 -0.0987785
-0.00512942 -0.0856207 -0.00853804
0.0084987 -0.0948059 0.0901104
0.0326431 -0.0982912 0.115975
0.049917 -0.106579 0.0580654
0.0558953 -0.0937267 -0.0588279
0.057654 -0.0930465 -0.108356
0.0605145 -0.093417 -0.094288
0.0614155 -0.0940459 0.000141844
0.0598538 -0.0945963 0.0941658
0.0535543 -0.0924606 0.108246
0.0521514 -0.0942571 0.0590754
0.052515 0.000167175 -0.0602841
0.0535089 0.000290648 -0.109334
0.056213 0.000311657 -0.0944731
0.0572541 0.000208357 -4.69717e-05
0.056276 0.000570993 0.0947424
0.0540722 -3.71913e-05 0.109413
0.0530464 7.63742e-05 0.0601703
0.0521994 0.098904 -0.0591799
0.0532115 0.0988791 -0.10856
0.0558885 0.0994125 -0.0942875
0.0569031 0.0996593 9.22409e-05
0.0558804 0.0989539 0.0943828
0.0531764 0.0943372 0.10861
0.0521671 0.0943392 0.059128
0.0499205 0.108373 -0.0565785
0.0506527 0.109013 -0.106987
0.0531582 0.110571 -0.0937777
0.0541099 0.111331 1.5984e-05
0.0531594 0.110273 0.0938385
0.0506638 0.107291 0.106999
0.0499307 0.106624 0.0565698
0.0494216 0.0561752 -0.0560759
0.0499288 0.05667 -0.106582
0.0521639 0.0592162 -0.0942997
0.0530441 0.0602278 -1.10683e-05
0.0521646 0.0591917 0.0943155
0.0499306 0.0565851 0.106583
0.0494237 0.0560776 0.0560757
0.0942281 -0.0430762 -0.0511845
0.0991838 -0.0461954 -0.0476565
0.102858 -0.0476707 0.00181491
0.0988903 -0.0457551 0.0487049
0.103423 -0.023905 0.0438786
SCALARS mass float 1
LOOKUP_TABLE default
1
1
1
1
1
1
1
1
1
1
1
1
1
1
1
1
1
1
1
1
1
1
1
1
1
1
1
1
1
1
1
1
1
1
1
1
1
1
1
1
1
1
1
1
1
1
1
1
1
1
1
1
1
1
1
1
1
1
1
1
1
1
1
1
1
1
1
1
1
1
1
1
1
1
1
1
1
1
1
1
1
1
1
1
1
1
1
1
1
1
1
1
1
1
1
1
1
1
1
1
1
1
1
1
1
1
1
1
1
1
1
1
1
1
1
1
1
1
1
1
1
1
1
1
1
1
1
1
1
1
1
1
1
1
1
1
1
1
1
1
1
1
1
1
1
1
1
1
1
1
1
1
1
1
1
1
1
1
1
1
1
1
1
1
1
1
1
1
1
1
1
1
1
1
1
1
1
1
1
1
1
1
1
1
1
1
1
1
1
1
1
1
1
1
1
1
1
1
1
1
1
1
1
1
1
1
1
1
1
1
1
1
1
1
1
1
1
1
1
1
1
1
1
1
1
1
1
1
1
1
1
1
1
1
1
1
1
1
1
1
1
1
1
1
1
1
1
1
1
1
