# vtk DataFile Version 3.0
Molecular Dynamics Particle Data
ASCII
DATASET POLYDATA
POINTS 250 float
0.390492 0.390286 0.390267
0.385641 0.385422 0.538239
0.384136 0.383902 0.670686
0.38377 0.383527 0.800003
0.384193 0.383901 0.929333
0.386181 0.38541 1.06178
0.391083 0.390273 1.20973
0.386179 0.538263 0.385405
0.380485 0.535952 0.535934
0.378775 0.534962 0.669615
0.378363 0.534665 0.8
0.378788 0.534959 0.930387
0.380532 0.535939 1.06407
0.38623 0.538249 1.21459
0.384744 0.670695 0.383887
0.378833 0.66962 0.534944
0.377024 0.669137 0.669131
0.376594 0.668985 0.8
0.377027 0.669136 0.930871
0.378838 0.669617 1.06506
0.38475 0.670691 1.21611
0.384389 0.8 0.383513
0.378426 0.8 0.534648
0.376602 0.8 0.66898
0.376153 0.8 0.8
0.376602 0.8 0.931021
0.378427 0.8 1.06535
0.384389 0.8 1.21649
0.38475 0.92931 0.383888
0.37884 0.930384 0.534944
0.377032 0.93087 0.669131
0.376602 0.931021 0.8
0.377033 0.93087 0.93087
0.37884 0.930383 1.06506
0.38475 0.92931 1.21611
0.386232 1.06175 0.385408
0.380544 1.06407 0.535936
0.37884 1.06506 0.669615
0.378427 1.06535 0.8
0.37884 1.06506 0.930383
0.380545 1.06407 1.06407
0.386232 1.06175 1.21459
0.391088 1.20973 0.390273
0.386232 1.21459 0.538248
0.38475 1.21611 0.670691
0.384389 1.21649 0.8
0.38475 1.21611 0.92931
0.386232 1.21459 1.06175
0.391087 1.20973 1.20973
0.541195 0.385581 0.385451
0.539074 0.379904 0.535972
0.53818 0.37817 0.669652
0.537944 0.37775 0.800057
0.538371 0.378171 0.930532
0.545515 0.379883 1.06415
0.547659 0.385557 1.21447
0.545363 0.536161 0.37986
0.543078 0.533598 0.533474
0.542175 0.532495 0.668492
0.541927 0.532167 0.80001
0.542239 0.53248 0.93153
0.543412 0.533501 1.06654
0.545692 0.53606 1.22013
0.544898 0.669712 0.378142
0.542563 0.668532 0.532373
0.541624 0.667999 0.667957
0.541364 0.667832 0.8
0.541629 0.667992 0.932044
0.542584 0.6685 1.06763
0.544921 0.669681 1.22186
0.544699 0.800017 0.377723
0.542337 0.800021 0.532045
0.541389 0.800021 0.667792
0.541122 0.800022 0.8
0.541392 0.800018 0.932208
0.54234 0.8 1.06796
0.544699 0.8 1.22228
0.544921 0.930321 0.378145
0.542589 0.93151 0.532374
0.541652 0.932045 0.667959
0.541392 0.932212 0.8
0.541652 0.932043 0.932041
0.542589 0.931506 1.06763
0.544921 0.930318 1.22186
0.545701 1.06394 0.379881
0.543476 1.06652 0.533484
0.542589 1.06763 0.668494
0.54234 1.06796 0.8
0.542589 1.06763 0.931506
0.543477 1.06652 1.06652
0.545701 1.06394 1.22012
0.547682 1.21445 0.385556
0.545701 1.22012 0.536058
0.544921 1.22186 0.66968
0.544699 1.22228 0.8
0.544921 1.22186 0.930318
0.545701 1.22012 1.06394
0.547682 1.21445 1.21445
0.681219 0.384586 0.384114
0.680714 0.378735 0.53515
0.68048 0.376942 0.669316
0.680524 0.376506 0.800221
0.679777 0.37694 0.931371
0.70014 0.378747 1.0651
0.699968 0.384574 1.21554
0.699303 0.535755 0.378678
0.699153 0.533143 0.532804
0.69912 0.532018 0.668194
0.699124 0.531683 0.800034
0.699235 0.53199 0.93188
0.699883 0.532875 1.06725
0.699989 0.53549 1.22128
0.699998 0.669528 0.37694
0.699988 0.668327 0.531686
0.699984 0.667785 0.667636
0.699986 0.667614 0.8
0.699991 0.667765 0.932366
0.699993 0.668211 1.06832
0.7 0.669411 1.22305
0.699982 0.800046 0.376507
0.699975 0.800054 0.531349
0.699974 0.80006 0.667467
0.699976 0.800058 0.8
0.699984 0.800048 0.932534
0.7 0.800012 1.06865
0.7 0.8 1.22349
0.7 0.930608 0.376947
0.7 0.931832 0.531691
0.7 0.932384 0.667639
0.7 0.932555 0.8
0.7 0.932379 0.932361
0.7 0.931814 1.06831
0.7 0.930591 1.22305
0.7 1.06452 0.378743
0.7 1.06717 0.532835
0.7 1.06832 0.668191
0.7 1.06865 0.8
0.7 1.06831 0.931811
0.7 1.06717 1.06717
0.7 1.06451 1.22126
0.7 1.21543 0.384572
0.7 1.22126 0.535486
0.7 1.22305 0.66941
0.7 1.22349 0.8
0.7 1.22305 0.930591
0.7 1.22126 1.06451
0.7 1.21543 1.21543
0.820656 0.385761 0.384188
0.821629 0.379978 0.535275
0.822074 0.378249 0.669605
0.822638 0.377829 0.80076
0.819202 0.378212 0.93239
0.85536 0.379904 1.06473
0.852282 0.385564 1.21486
0.852874 0.536473 0.379684
0.854774 0.53399 0.533405
0.855594 0.532909 0.66851
0.855871 0.532585 0.800094
0.855839 0.532891 0.931662
0.856243 0.533556 1.06673
0.854275 0.536072 1.22021
0.855157 0.670046 0.378123
0.857486 0.668919 0.532359
0.858422 0.668405 0.667957
0.858688 0.668239 0.800009
0.858425 0.668357 0.932064
0.857402 0.66856 1.06765
0.855075 0.669689 1.22187
0.855276 0.800208 0.377714
0.85763 0.800242 0.532038
0.858578 0.800255 0.667788
0.858844 0.800254 0.800007
0.858583 0.80022 0.932217
0.857654 0.800037 1.06797
0.8553 0.800003 1.22228
0.855071 0.930419 0.378142
0.8574 0.931624 0.532372
0.858333 0.932164 0.667957
0.858596 0.93233 0.8
0.858336 0.932144 0.932045
0.857409 0.931533 1.06763
0.855079 0.930321 1.22186
0.854296 1.06397 0.37988
0.856519 1.06655 0.533483
0.857408 1.06766 0.668494
0.857656 1.06799 0.8
0.857409 1.06765 0.931508
0.856522 1.06652 1.06652
0.854298 1.06394 1.22012
0.852318 1.21445 0.385556
0.854298 1.22012 0.536058
0.855079 1.22186 0.66968
0.8553 1.22228 0.8
0.855079 1.22186 0.930318
0.854298 1.22012 1.06394
0.852318 1.21445 1.21445
0.963236 0.388355 0.385967
0.965844 0.383321 0.536955
0.967103 0.38175 0.671421
0.968574 0.381458 0.802801
0.961609 0.382358 0.934912
1.01494 0.383081 1.06058
1.00892 0.390311 1.21156
1.00339 0.542682 0.38413
1.00771 0.540835 0.53545
1.00938 0.53979 0.669159
1.01057 0.539007 0.799394
1.01207 0.538131 0.930234
1.01658 0.537388 1.06599
1.01375 0.538285 1.21516
1.01601 0.672365 0.383875
1.02206 0.671547 0.534907
1.0239 0.671101 0.669127
1.02432 0.670873 0.80004
1.02378 0.67079 0.930944
1.02123 0.67002 1.0651
1.01524 0.670727 1.21615
1.01554 0.801212 0.38347
1.02149 0.801408 0.534616
1.02331 0.801438 0.668973
1.02376 0.801416 0.800022
1.02332 0.801284 0.931072
1.02156 0.800203 1.06541
1.01561 0.800024 1.2165
1.01525 0.930062 0.383874
1.02117 0.931254 0.534931
1.02297 0.931758 0.669124
1.0234 0.931901 0.800008
1.02297 0.93165 0.930892
1.02116 0.930508 1.06508
1.01525 0.929324 1.21611
1.01377 1.06196 0.385406
1.01945 1.0643 0.535933
1.02116 1.0653 0.669614
1.02157 1.06559 0.8
1.02116 1.06526 0.930389
1.01945 1.06411 1.06407
1.01377 1.06175 1.21459
1.00891 1.20974 0.390273
1.01377 1.21461 0.538248
1.01525 1.21612 0.670691
1.01561 1.2165 0.8
1.01525 1.21612 0.92931
1.01377 1.2146 1.06175
1.00891 1.20973 1.20973
1.11564 0.49172 0.393603
1.12137 0.490359 0.548394
1.12304 0.490063 0.699341
1.12286 0.490232 0.849996
1.12513 0.493051 1.00121
VERTICES 250 500
1 0
1 1
1 2
1 3
1 4
1 5
1 6
1 7
1 8
1 9
1 10
1 11
1 12
1 13
1 14
1 15
1 16
1 17
1 18
1 19
1 20
1 21
1 22
1 23
1 24
1 25
1 26
1 27
1 28
1 29
1 30
1 31
1 32
1 33
1 34
1 35
1 36
1 37
1 38
1 39
1 40
1 41
1 42
1 43
1 44
1 45
1 46
1 47
1 48
1 49
1 50
1 51
1 52
1 53
1 54
1 55
1 56
1 57
1 58
1 59
1 60
1 61
1 62
1 63
1 64
1 65
1 66
1 67
1 68
1 69
1 70
1 71
1 72
1 73
1 74
1 75
1 76
1 77
1 78
1 79
1 80
1 81
1 82
1 83
1 84
1 85
1 86
1 87
1 88
1 89
1 90
1 91
1 92
1 93
1 94
1 95
1 96
1 97
1 98
1 99
1 100
1 101
1 102
1 103
1 104
1 105
1 106
1 107
1 108
1 109
1 110
1 111
1 112
1 113
1 114
1 115
1 116
1 117
1 118
1 119
1 120
1 121
1 122
1 123
1 124
1 125
1 126
1 127
1 128
1 129
1 130
1 131
1 132
1 133
1 134
1 135
1 136
1 137
1 138
1 139
1 140
1 141
1 142
1 143
1 144
1 145
1 146
1 147
1 148
1 149
1 150
1 151
1 152
1 153
1 154
1 155
1 156
1 157
1 158
1 159
1 160
1 161
1 162
1 163
1 164
1 165
1 166
1 167
1 168
1 169
1 170
1 171
1 172
1 173
1 174
1 175
1 176
1 177
1 178
1 179
1 180
1 181
1 182
1 183
1 184
1 185
1 186
1 187
1 188
1 189
1 190
1 191
1 192
1 193
1 194
1 195
1 196
1 197
1 198
1 199
1 200
1 201
1 202
1 203
1 204
1 205
1 206
1 207
1 208
1 209
1 210
1 211
1 212
1 213
1 214
1 215
1 216
1 217
1 218
1 219
1 220
1 221
1 222
1 223
1 224
1 225
1 226
1 227
1 228
1 229
1 230
1 231
1 232
1 233
1 234
1 235
1 236
1 237
1 238
1 239
1 240
1 241
1 242
1 243
1 244
1 245
1 246
1 247
1 248
1 249
POINT_DATA 250
VECTORS velocity float
-0.160094 -0.161137 -0.161219
-0.1665 -0.167558 -0.120057
-0.169317 -0.170428 -0.066527
-0.170072 -0.171217 3.48407e-05
-0.169125 -0.170433 0.0666037
-0.164201 -0.167621 0.120133
-0.157551 -0.161201 0.161219
-0.164218 -0.119965 -0.167636
-0.171905 -0.123398 -0.12347
-0.175059 -0.125227 -0.0682022
-0.17589 -0.125822 1.39386e-05
-0.175018 -0.125238 0.0682143
-0.171739 -0.123452 0.123477
-0.164036 -0.120025 0.167634
-0.166792 -0.0664925 -0.170503
-0.17486 -0.0681805 -0.125297
-0.178207 -0.0690695 -0.0690925
-0.17907 -0.0693682 -2.6216e-06
-0.178201 -0.0690739 0.069098
-0.174845 -0.0681971 0.125298
-0.166775 -0.0665084 0.170501
-0.167512 -9.56828e-08 -0.171291
-0.175675 1.47514e-05 -0.125891
-0.17905 7.86001e-06 -0.06939
-0.179959 9.17721e-06 -2.09626e-06
-0.17905 4.75594e-06 0.0693896
-0.175673 8.68056e-06 0.125889
-0.167511 -8.81669e-06 0.17129
-0.166774 0.0665137 -0.170501
-0.17484 0.0682006 -0.125295
-0.178184 0.0690952 -0.0690919
-0.179049 0.0693895 -4.29419e-06
-0.178184 0.069095 0.0690948
-0.17484 0.0682001 0.125295
-0.166774 0.0665132 0.1705
-0.164031 0.120027 -0.167626
-0.171699 0.123463 -0.123464
-0.17484 0.125296 -0.0682004
-0.175673 0.125889 3.88597e-06
-0.17484 0.125296 0.0682005
-0.171699 0.123463 0.123463
-0.164031 0.120027 0.16763
-0.157536 0.161203 -0.161201
-0.164031 0.167629 -0.120027
-0.166774 0.1705 -0.0665088
-0.16751 0.171289 -1.01956e-05
-0.166774 0.170499 0.0665135
-0.164031 0.16763 0.120027
-0.157536 0.161203 0.161203
-0.108783 -0.167029 -0.167471
-0.111794 -0.17456 -0.123341
-0.113378 -0.1778 -0.0680735
-0.113824 -0.178669 0.000187525
-0.113614 -0.177795 0.0686957
-0.0926971 -0.174639 0.123716
-0.0898033 -0.16712 0.16723
-0.0934064 -0.122787 -0.174709
-0.096781 -0.126506 -0.126871
-0.0983717 -0.128511 -0.0698434
-0.0988422 -0.12916 2.73275e-05
-0.0982455 -0.12855 0.0699192
-0.0960138 -0.126798 0.126916
-0.0926817 -0.123087 0.174665
-0.0940498 -0.0679029 -0.1779
-0.0974687 -0.0697129 -0.128873
-0.0991207 -0.0706796 -0.0708233
-0.0996066 -0.0710024 1.17235e-05
-0.0991151 -0.0707023 0.07083
-0.0974485 -0.0698299 0.128876
-0.0940308 -0.0680185 0.177896
-0.0944488 2.94836e-05 -0.178765
-0.0979179 3.76704e-05 -0.129522
-0.0995859 3.7453e-05 -0.0711474
-0.100088 3.67542e-05 7.93368e-06
-0.0995762 3.68608e-05 0.0711473
-0.0979094 2.49734e-05 0.129521
-0.0944477 3.47143e-06 0.178764
-0.0940317 0.0680411 -0.177892
-0.0974417 0.0698711 -0.128867
-0.0990896 0.0708464 -0.0708216
-0.0995769 0.0711721 2.28255e-06
-0.0990885 0.0708385 0.0708225
-0.09744 0.0698471 0.128868
-0.09403 0.0680215 0.177891
-0.0926602 0.123095 -0.174646
-0.0958858 0.126844 -0.126842
-0.0974403 0.12887 -0.0698485
-0.0979089 0.129523 6.38948e-06
-0.09744 0.128869 0.0698464
-0.0958854 0.126842 0.126842
-0.0926598 0.123093 0.174645
-0.0897561 0.167126 -0.167122
-0.0926601 0.174646 -0.123092
-0.0940302 0.177892 -0.068022
-0.0944474 0.178764 -1.58457e-07
-0.0940301 0.177891 0.0680211
-0.09266 0.174646 0.123093
-0.0897562 0.167126 0.167125
-0.0385268 -0.168463 -0.169813
-0.0392091 -0.176303 -0.12469
-0.0395997 -0.179644 -0.0685454
-0.0393463 -0.180536 0.00065113
-0.0441107 -0.179648 0.0706776
0.00205303 -0.176386 0.124807
-3.06988e-05 -0.168625 0.168993
-0.00105515 -0.123508 -0.176535
-0.00138977 -0.127281 -0.127846
-0.00144935 -0.129325 -0.0702888
-0.00145252 -0.129987 3.78676e-05
-0.0012967 -0.129344 0.0704534
-0.000189241 -0.127733 0.127971
-2.92087e-05 -0.12393 0.176459
9.94681e-05 -0.0681147 -0.179758
8.79104e-05 -0.0699497 -0.129889
7.75258e-05 -0.0709275 -0.071322
8.28118e-05 -0.0712544 2.70809e-05
8.0688e-05 -0.0709671 0.0713251
-1.15945e-05 -0.0702603 0.129891
-1.54081e-05 -0.0684397 0.179751
-3.7409e-05 0.000141323 -0.180651
-3.81889e-05 0.000162245 -0.130552
-3.88734e-05 0.000173273 -0.0716482
-4.10791e-05 0.000172423 4.92305e-06
-3.55101e-05 0.000146344 0.0716529
-1.60141e-05 2.65175e-05 0.130552
-7.85287e-06 1.10021e-05 0.180644
-1.7589e-05 0.0685046 -0.179745
-1.70895e-05 0.0703895 -0.129878
-2.06151e-05 0.0713932 -0.0713157
-2.0379e-05 0.0717231 3.91074e-06
-1.94454e-05 0.0713793 0.0713183
-6.42321e-06 0.0703346 0.129876
-2.40059e-06 0.0684424 0.179742
-6.03683e-06 0.123954 -0.176396
-7.26747e-06 0.127816 -0.127798
-5.80628e-06 0.129897 -0.0703143
-7.30529e-06 0.130567 1.10613e-06
-3.85904e-06 0.129891 0.0703166
-2.88868e-06 0.127799 0.127797
-1.64483e-06 0.123939 0.176395
5.49881e-07 0.168635 -0.168634
-1.80314e-06 0.176397 -0.123941
-1.7944e-06 0.179744 -0.0684413
-1.23338e-06 0.180643 -3.37184e-06
-1.43778e-06 0.179743 0.0684424
-1.28626e-06 0.176396 0.123938
1.12752e-06 0.168634 0.168634
0.041532 -0.165995 -0.169727
0.0430543 -0.173819 -0.124342
0.043897 -0.177032 -0.067782
0.0455378 -0.177896 0.00192026
0.0339959 -0.177086 0.0730594
0.0975057 -0.174605 0.122457
0.0896874 -0.1671 0.168079
0.0894234 -0.123243 -0.17501
0.0919896 -0.126851 -0.126957
0.0934069 -0.128849 -0.0697923
0.0940075 -0.129483 0.000172459
0.0940591 -0.12872 0.0700968
0.0951917 -0.126808 0.1272
0.0926094 -0.123072 0.174851
0.0943457 -0.0673453 -0.177924
0.097773 -0.0690583 -0.128889
0.0994227 -0.0699842 -0.0708232
0.0999291 -0.0703051 3.17318e-05
0.099427 -0.0700493 0.0708577
0.0974279 -0.0697371 0.128909
0.0940228 -0.0680017 0.17792
0.0943789 0.000488529 -0.178784
0.0978273 0.000567076 -0.129538
0.0994931 0.00059184 -0.0711536
0.0999969 0.000596595 2.99281e-05
0.0995083 0.000531074 0.0711657
0.0978963 7.11438e-05 0.129545
0.0944457 2.62356e-05 0.178774
0.0940032 0.0683207 -0.1779
0.0974074 0.0701909 -0.128875
0.0990459 0.071177 -0.0708242
0.0995403 0.0714989 1.2826e-05
0.0990526 0.071128 0.0708335
0.0974347 0.0699073 0.12888
0.0940302 0.0680314 0.177894
0.0926472 0.123205 -0.174649
0.0958712 0.126968 -0.126844
0.0974273 0.129004 -0.0698495
0.0978928 0.129653 1.00626e-05
0.0974298 0.128976 0.0698503
0.0958812 0.126872 0.126845
0.0926583 0.123095 0.174647
0.0897536 0.167135 -0.167123
0.092657 0.174657 -0.123092
0.0940294 0.177903 -0.068022
0.0944452 0.178775 7.19786e-07
0.0940299 0.177899 0.0680215
0.0926584 0.174649 0.123094
0.0897551 0.167126 0.167126
0.120445 -0.162465 -0.166447
0.124262 -0.169142 -0.120669
0.126542 -0.17207 -0.0641746
0.130064 -0.172756 0.00632232
0.112014 -0.170297 0.0761806
0.170067 -0.174257 0.111768
0.157504 -0.161107 0.163604
0.125763 -0.105781 -0.171294
0.131045 -0.108832 -0.125518
0.135515 -0.111644 -0.071876
0.140657 -0.114501 -0.00428912
0.146898 -0.117963 0.0671226
0.158956 -0.118328 0.130291
0.164026 -0.119989 0.169001
0.169289 -0.0630393 -0.170437
0.177792 -0.0643869 -0.125328
0.181204 -0.0652599 -0.0690898
0.181979 -0.0658663 0.000109581
0.180705 -0.0663158 0.0692098
0.175108 -0.0669854 0.125288
0.166764 -0.0664324 0.170543
0.167241 0.00210593 -0.171401
0.17536 0.00245388 -0.125962
0.178733 0.00251919 -0.0693876
0.179633 0.00244111 3.14854e-05
0.178764 0.00226561 0.0695044
0.175644 0.000355354 0.126023
0.167508 4.21916e-05 0.171329
0.166794 0.0685154 -0.170546
0.174867 0.0704887 -0.125339
0.178198 0.0714239 -0.0691077
0.17908 0.0716959 3.59464e-05
0.178195 0.0711951 0.0691586
0.174846 0.0684822 0.125366
0.166775 0.0665463 0.170514
0.164025 0.120906 -0.167637
0.17169 0.124463 -0.123475
0.174836 0.126316 -0.0682033
0.175661 0.126902 1.7761e-05
0.174836 0.126177 0.0682221
0.171696 0.123618 0.123487
0.164031 0.120045 0.167635
0.157535 0.161272 -0.161202
0.164029 0.167704 -0.120028
0.166773 0.170576 -0.0665093
0.167507 0.171365 -9.52731e-06
0.166773 0.170561 0.0665161
0.16403 0.167645 0.12003
0.157537 0.161205 0.161203
0.187233 -0.0258409 -0.154495
0.195591 -0.0280863 -0.0886446
0.197775 -0.0281853 0.000704879
0.19524 -0.0268756 0.0880166
0.19964 -0.0173661 0.145791
VECTORS force float
-0.0221731 -0.0256358 -0.0258321
-0.0216381 -0.0249357 -0.0364307
-0.0220809 -0.0254437 -0.0130107
-0.0220582 -0.0254636 7.00498e-05
-0.0219133 -0.0254507 0.0131951
-0.0164595 -0.0251173 0.0366197
-0.0163212 -0.0258265 0.0258701
-0.0165616 -0.0362522 -0.0251492
-0.0166257 -0.0358936 -0.0360411
-0.0171419 -0.0356995 -0.0128427
-0.017107 -0.0354994 1.26547e-05
-0.0170972 -0.0357193 0.0128732
-0.0163854 -0.0360151 0.0360558
-0.0162991 -0.036396 0.025139
-0.0167217 -0.0129737 -0.0256479
-0.0168593 -0.0127928 -0.035848
-0.017413 -0.0126982 -0.0127441
-0.0173519 -0.0126116 1.00144e-05
-0.0174102 -0.0127063 0.0127346
-0.0168499 -0.0128335 0.0358537
-0.0167108 -0.0130119 0.0256467
-0.0166737 2.38629e-05 -0.0256669
-0.016815 1.69867e-05 -0.0356473
-0.017339 3.11559e-05 -0.0126549
-0.0173113 2.66476e-05 2.34418e-06
-0.0173384 2.62469e-05 0.0126495
-0.0168134 2.43466e-06 0.0356488
-0.016674 5.19504e-06 0.0256684
-0.0167112 0.0130067 -0.025645
-0.0168482 0.0128503 -0.0358461
-0.0173999 0.0127337 -0.0127439
-0.0173397 0.0126495 5.72623e-06
-0.0173995 0.012733 0.0127337
-0.0168473 0.0128514 0.0358496
-0.01671 0.0130055 0.025645
-0.016292 0.0364003 -0.0251296
-0.01634 0.0360309 -0.0360358
-0.0168475 0.03585 -0.01284
-0.0168134 0.0356483 -4.78638e-06
-0.0168471 0.0358501 0.0128513
-0.0163396 0.0360304 0.0360303
-0.0162917 0.0364006 0.0251307
-0.0163017 0.0258291 -0.0258288
-0.0162918 0.0251307 -0.036397
-0.0167103 0.0256451 -0.0130132
-0.0166736 0.0256682 3.39568e-06
-0.0167103 0.0256449 0.0130054
-0.0162918 0.0251307 0.0364007
-0.0163015 0.025829 0.025829
-0.0182468 -0.0241227 -0.0248034
-0.0180908 -0.0233948 -0.0358801
-0.0180072 -0.0239628 -0.0127214
-0.0177976 -0.0239708 0.000256193
-0.0215657 -0.0239397 0.0136816
-0.00261693 -0.0234853 0.0360847
-0.00408711 -0.024252 0.0244838
-0.00432924 -0.0354662 -0.0235631
-0.0047637 -0.0349228 -0.0352282
-0.00494511 -0.0347237 -0.0125743
-0.00490765 -0.0345184 1.59671e-05
-0.00499998 -0.0347166 0.0126501
-0.00473059 -0.0352011 0.0352843
-0.00446657 -0.0357311 0.0235237
-0.0044982 -0.0125757 -0.0240748
-0.00484289 -0.012365 -0.0350303
-0.00504592 -0.0122736 -0.0125105
-0.00499141 -0.0121822 8.34056e-06
-0.00506484 -0.0122944 0.0125171
-0.00493323 -0.0125742 0.0350252
-0.00460437 -0.012801 0.0240731
-0.00456354 -1.16721e-06 -0.0240797
-0.00491655 8.71776e-06 -0.0348193
-0.00511217 1.21165e-05 -0.0124264
-0.00506678 8.46041e-06 1.55838e-06
-0.00510547 3.10634e-06 0.0124326
-0.00490258 2.29927e-05 0.0348158
-0.00455382 -4.1391e-07 0.0240784
-0.0046099 0.0128661 -0.0240686
-0.00495572 0.0126505 -0.0350231
-0.00515657 0.0125727 -0.0125127
-0.00510162 0.0124869 -1.22376e-06
-0.00515655 0.0125704 0.0125193
-0.00495399 0.0125958 0.0350211
-0.00460727 0.0128127 0.0240685
-0.00446954 0.0357417 -0.0234959
-0.0047783 0.0352351 -0.035219
-0.00495428 0.0350311 -0.0125983
-0.00490387 0.0348258 3.36624e-07
-0.00495408 0.0350265 0.0125966
-0.00477789 0.035223 0.0352225
-0.00446907 0.0357331 0.0234943
-0.00410144 0.0242599 -0.0242609
-0.00446904 0.0234947 -0.0357343
-0.00460743 0.024069 -0.012805
-0.00455396 0.0240787 -5.09536e-06
-0.00460743 0.0240686 0.0128126
-0.00446882 0.0234943 0.0357339
-0.00410143 0.0242597 0.0242593
-0.0029906 -0.0228406 -0.0247072
-0.0029098 -0.0222494 -0.0352954
-0.00288614 -0.0228076 -0.0123478
-0.00207602 -0.0227981 0.00076922
-0.0119845 -0.0227489 0.0159055
0.00551846 -0.0230635 0.0328404
-2.36274e-05 -0.0237951 0.0243412
0.000639893 -0.0360273 -0.0230601
0.000379016 -0.0353894 -0.0347134
0.000356907 -0.0352023 -0.0124656
0.000356659 -0.0350071 2.93363e-05
0.000260125 -0.0350915 0.0124605
4.05425e-05 -0.0348154 0.0348213
-1.43436e-05 -0.0353127 0.0231061
0.000258781 -0.0124259 -0.0236129
0.000284467 -0.0121979 -0.0345742
0.000284938 -0.0120963 -0.0124002
0.00028586 -0.0120061 6.58453e-06
0.000251383 -0.0120939 0.012403
2.15772e-05 -0.0124537 0.0345596
-4.0969e-06 -0.0126829 0.0236157
-1.76976e-05 0.000179317 -0.0236239
-1.6528e-05 0.000189402 -0.034364
-1.58108e-05 0.000188989 -0.0123148
-1.9067e-05 0.000196546 4.41608e-06
-1.82231e-05 0.000183438 0.0123228
-2.39263e-06 7.53612e-06 0.0343626
-3.09631e-06 9.22875e-06 0.0236195
-9.01094e-06 0.012761 -0.0236131
-1.0028e-05 0.0125604 -0.03457
-1.25689e-05 0.0124845 -0.0123994
-1.16224e-05 0.0123949 2.16516e-06
-1.22015e-05 0.0124697 0.0124064
-4.88362e-06 0.0125009 0.0345665
-5.93569e-07 0.0126839 0.0236122
-8.23633e-06 0.0353643 -0.0230405
-1.01729e-05 0.0348203 -0.0347718
-9.62134e-06 0.0346165 -0.0124869
-9.93927e-06 0.0344088 5.2557e-06
-7.04428e-06 0.0346067 0.012485
-3.04528e-06 0.0347812 0.0347726
-7.79951e-07 0.0353252 0.0230414
-1.63611e-06 0.0238201 -0.023816
-1.9513e-06 0.0230458 -0.0353189
-1.29144e-06 0.0236171 -0.0126916
-1.73293e-06 0.0236213 1.55623e-06
-7.57212e-07 0.0236153 0.0126844
-9.21405e-07 0.0230414 0.0353252
-4.36944e-07 0.0238149 0.0238148
0.00450875 -0.021159 -0.0246621
0.00478539 -0.0208012 -0.0348135
0.00487204 -0.0213309 -0.0118895
0.00684764 -0.0213476 0.00168793
-0.00524229 -0.0209631 0.0184772
0.010903 -0.0236152 0.0288933
0.00398671 -0.0242511 0.0246156
-0.00181033 -0.0383619 -0.0237026
-0.00173184 -0.0377328 -0.03521
-0.00145577 -0.0375548 -0.0125542
-0.000780509 -0.0372891 9.02354e-05
0.0003877 -0.0371671 0.0127224
0.00329377 -0.0353963 0.0352984
0.00441092 -0.0357328 0.0236507
0.00491384 -0.0127422 -0.0240682
0.00527434 -0.0124509 -0.0350006
0.00548488 -0.0123549 -0.0125129
0.00549624 -0.0123115 2.48221e-05
0.0056155 -0.0123737 0.012508
0.00488169 -0.0125853 0.0350128
0.00459376 -0.0127835 0.0240792
0.00445414 0.000175792 -0.0240971
0.00479962 0.000207738 -0.0348237
0.005 0.000210437 -0.0124073
0.00495365 0.000216308 -2.23975e-05
0.00501202 0.000238046 0.0124558
0.00489214 4.29183e-05 0.0348295
0.00455069 1.77696e-05 0.0240871
0.00458341 0.0130046 -0.024081
0.00492761 0.0128065 -0.0350321
0.00512243 0.0127351 -0.0125106
0.00507448 0.0126547 9.0948e-06
0.00512568 0.0127335 0.0125265
0.00494958 0.0125672 0.0350352
0.00460612 0.0128085 0.024073
0.00444334 0.0359609 -0.0235006
0.00474926 0.0354677 -0.0352231
0.0049264 0.0352739 -0.012597
0.00487365 0.0350654 7.24594e-06
0.00493116 0.0352364 0.0125997
0.00477059 0.0352722 0.035232
0.00446707 0.0357403 0.0234966
0.00409575 0.0242909 -0.0242617
0.00446207 0.0235289 -0.0357346
0.0046014 0.0241035 -0.0128052
0.0045474 0.0241125 -3.78671e-06
0.00460285 0.0240954 0.0128134
0.00446643 0.0235042 0.0357359
0.00410082 0.0242603 0.0242599
0.0297177 -0.0192676 -0.0234425
0.0294177 -0.0188796 -0.0333526
0.0291133 -0.0193982 -0.0111749
0.0315558 -0.0197941 0.00375362
0.0170464 -0.0179712 0.0131826
0.02861 -0.0282337 0.0259678
0.0161979 -0.0257617 0.0225542
-0.073156 -0.0134 -0.0332455
-0.0689316 -0.0156166 -0.0447591
-0.0560654 -0.0209251 -0.0282198
-0.0408892 -0.0261507 -0.0118903
-0.0323817 -0.0292208 0.0145515
-0.0260982 -0.0258961 0.0548846
0.0164521 -0.036517 0.0271858
0.0217813 -0.00538624 -0.025476
0.0223682 -0.00565556 -0.0358016
0.0228447 -0.00606142 -0.0126106
0.0222588 -0.00702946 0.000274139
0.0212361 -0.00919333 0.0128726
0.0174446 -0.00963254 0.0356221
0.0166976 -0.0129073 0.0256347
0.0161956 0.000108149 -0.0257714
0.0162623 7.2736e-05 -0.0356414
0.016783 6.72834e-05 -0.0126282
0.0167521 -9.16696e-05 2.53564e-05
0.0168418 -0.000185179 0.0126541
0.0167734 0.000292839 0.0356878
0.0166703 1.67485e-05 0.0257359
0.0167692 0.0131212 -0.0257143
0.0169214 0.0130146 -0.0358859
0.017461 0.0129085 -0.0127206
0.0174189 0.0128004 1.25603e-05
0.0174525 0.013091 0.0127997
0.0168567 0.0127426 0.035907
0.0167106 0.0130109 0.0256758
0.0162721 0.0381801 -0.0251506
0.0163156 0.0379829 -0.0360502
0.0168285 0.037786 -0.0128414
0.0167862 0.0375677 2.36836e-05
0.0168298 0.0375957 0.0128903
0.0163353 0.0362599 0.0360824
0.0162904 0.0364348 0.0251423
0.0162932 0.0260973 -0.0258287
0.016281 0.0254071 -0.0363991
0.0167003 0.0259281 -0.0130139
0.0166615 0.0259457 6.48463e-06
0.0167021 0.0258817 0.0130147
0.0162893 0.0251817 0.0364099
0.0163021 0.0258348 0.0258311
0.10116 -0.0428646 -0.0130881
0.0975928 -0.0405382 0.00145792
0.0883415 -0.0359912 0.0106262
0.0787053 -0.0322113 0.00806992
0.0840271 -0.0245307 0.0100045
SCALARS mass float 1
LOOKUP_TABLE default
1
1
1
1
1
1
1
1
1
1
1
1
1
1
1
1
1
1
1
1
1
1
1
1
1
1
1
1
1
1
1
1
1
1
1
1
1
1
1
1
1
1
1
1
1
1
1
1
1
1
1
1
1
1
1
1
1
1
1
1
1
1
1
1
1
1
1
1
1
1
1
1
1
1
1
1
1
1
1
1
1
1
1
1
1
1
1
1
1
1
1
1
1
1
1
1
1
1
1
1
1
1
1
1
1
1
1
1
1
1
1
1
1
1
1
1
1
1
1
1
1
1
1
1
1
1
1
1
1
1
1
1
1
1
1
1
1
1
1
1
1
1
1
1
1
1
1
1
1
1
1
1
1
1
1
1
1
1
1
1
1
1
1
1
1
1
1
1
1
1
1
1
1
1
1
1
1
1
1
1
1
1
1
1
1
1
1
1
1
1
1
1
1
1
1
1
1
1
1
1
1
1
1
1
1
1
1
1
1
1
1
1
1
1
1
1
1
1
1
1
1
1
1
1
1
1
1
1
1
1
1
1
1
1
1
1
1
1
1
1
1
1
1
1
1
1
1
1
1
1
