# vtk DataFile Version 3.0
Molecular Dynamics Particle Data
ASCII
DATASET POLYDATA
POINTS 250 float
0.497054 0.497054 0.497054
0.496907 0.496907 0.599873
0.496901 0.496901 0.699996
0.496901 0.496901 0.8
0.496901 0.496901 0.900004
0.496907 0.496907 1.00013
0.497054 0.497054 1.10295
0.496907 0.599873 0.496907
0.49674 0.59986 0.59986
0.496732 0.599858 0.699995
0.496731 0.599858 0.8
0.496732 0.599858 0.900005
0.49674 0.59986 1.00014
0.496907 0.599873 1.10309
0.496901 0.699996 0.496901
0.496732 0.699995 0.599858
0.496723 0.699994 0.699994
0.496723 0.699994 0.8
0.496723 0.699994 0.900006
0.496732 0.699995 1.00014
0.496901 0.699996 1.1031
0.496901 0.8 0.496901
0.496731 0.8 0.599858
0.496723 0.8 0.699994
0.496722 0.8 0.8
0.496723 0.8 0.900006
0.496731 0.8 1.00014
0.496901 0.8 1.1031
0.496901 0.900004 0.496901
0.496732 0.900005 0.599858
0.496723 0.900006 0.699994
0.496723 0.900006 0.8
0.496723 0.900006 0.900006
0.496732 0.900005 1.00014
0.496901 0.900004 1.1031
0.496907 1.00013 0.496907
0.49674 1.00014 0.59986
0.496732 1.00014 0.699995
0.496731 1.00014 0.8
0.496732 1.00014 0.900005
0.49674 1.00014 1.00014
0.496907 1.00013 1.10309
0.497054 1.10295 0.497054
0.496907 1.10309 0.599873
0.496901 1.1031 0.699996
0.496901 1.1031 0.8
0.496901 1.1031 0.900004
0.496907 1.10309 1.00013
0.497054 1.10295 1.10295
0.599873 0.496907 0.496907
0.59986 0.49674 0.59986
0.599858 0.496732 0.699995
0.599858 0.496731 0.8
0.599858 0.496732 0.900005
0.59986 0.49674 1.00014
0.599873 0.496907 1.10309
0.59986 0.59986 0.49674
0.599844 0.599844 0.599844
0.599842 0.599842 0.699993
0.599842 0.599841 0.8
0.599842 0.599842 0.900007
0.599844 0.599844 1.00016
0.59986 0.59986 1.10326
0.599859 0.699995 0.496732
0.599842 0.699993 0.599842
0.59984 0.699993 0.699993
0.59984 0.699993 0.8
0.59984 0.699993 0.900007
0.599842 0.699993 1.00016
0.599859 0.699995 1.10327
0.599858 0.8 0.496731
0.599842 0.8 0.599841
0.59984 0.8 0.699993
0.59984 0.8 0.8
0.59984 0.8 0.900007
0.599842 0.8 1.00016
0.599858 0.8 1.10327
0.599859 0.900005 0.496732
0.599842 0.900007 0.599842
0.59984 0.900007 0.699993
0.59984 0.900007 0.8
0.59984 0.900007 0.900007
0.599842 0.900007 1.00016
0.599859 0.900005 1.10327
0.59986 1.00014 0.49674
0.599844 1.00016 0.599844
0.599842 1.00016 0.699993
0.599842 1.00016 0.8
0.599842 1.00016 0.900007
0.599844 1.00016 1.00016
0.59986 1.00014 1.10326
0.599873 1.10309 0.496907
0.59986 1.10326 0.59986
0.599859 1.10327 0.699995
0.599858 1.10327 0.8
0.599859 1.10327 0.900005
0.59986 1.10326 1.00014
0.599873 1.10309 1.10309
0.699997 0.496901 0.496901
0.699997 0.496732 0.599858
0.699997 0.496724 0.699995
0.699997 0.496723 0.8
0.699997 0.496724 0.900006
0.7 0.496732 1.00014
0.7 0.496901 1.1031
0.7 0.599859 0.496732
0.699999 0.599842 0.599842
0.699999 0.59984 0.699993
0.699999 0.59984 0.8
0.7 0.59984 0.900007
0.7 0.599842 1.00016
0.7 0.599858 1.10327
0.7 0.699995 0.496724
0.7 0.699993 0.59984
0.7 0.699993 0.699993
0.7 0.699993 0.8
0.7 0.699993 0.900007
0.7 0.699993 1.00016
0.7 0.699995 1.10328
0.7 0.8 0.496723
0.7 0.8 0.59984
0.7 0.8 0.699993
0.7 0.8 0.8
0.7 0.8 0.900007
0.7 0.8 1.00016
0.7 0.8 1.10328
0.7 0.900005 0.496724
0.7 0.900007 0.59984
0.7 0.900007 0.699993
0.7 0.900007 0.8
0.7 0.900007 0.900007
0.7 0.900007 1.00016
0.7 0.900005 1.10328
0.7 1.00014 0.496732
0.7 1.00016 0.599842
0.7 1.00016 0.699993
0.7 1.00016 0.8
0.7 1.00016 0.900007
0.7 1.00016 1.00016
0.7 1.00014 1.10327
0.7 1.1031 0.496901
0.7 1.10327 0.599858
0.7 1.10328 0.699995
0.7 1.10328 0.8
0.7 1.10328 0.900005
0.7 1.10327 1.00014
0.7 1.1031 1.1031
0.800018 0.496907 0.496903
0.800022 0.49674 0.599859
0.800022 0.496732 0.699995
0.800023 0.496731 0.8
0.800032 0.496732 0.90001
0.80013 0.49674 1.00015
0.800126 0.496907 1.10309
0.800128 0.599865 0.496738
0.800141 0.59985 0.599843
0.800143 0.599848 0.699993
0.800144 0.599847 0.8
0.800146 0.599847 0.900008
0.800153 0.599845 1.00016
0.800139 0.59986 1.10326
0.80014 0.699996 0.496731
0.800156 0.699995 0.599841
0.800158 0.699995 0.699993
0.800159 0.699995 0.8
0.800159 0.699994 0.900007
0.800157 0.699994 1.00016
0.800141 0.699995 1.10327
0.800141 0.8 0.496731
0.800158 0.8 0.599841
0.80016 0.8 0.699993
0.80016 0.8 0.8
0.80016 0.8 0.900007
0.800158 0.8 1.00016
0.800142 0.8 1.10327
0.800141 0.900005 0.496732
0.800158 0.900007 0.599842
0.80016 0.900007 0.699993
0.80016 0.900007 0.8
0.80016 0.900007 0.900007
0.800158 0.900007 1.00016
0.800141 0.900005 1.10327
0.80014 1.00014 0.49674
0.800156 1.00016 0.599844
0.800158 1.00016 0.699993
0.800158 1.00016 0.8
0.800158 1.00016 0.900007
0.800156 1.00016 1.00016
0.80014 1.00014 1.10326
0.800127 1.10309 0.496907
0.80014 1.10326 0.59986
0.800141 1.10327 0.699995
0.800142 1.10327 0.8
0.800141 1.10327 0.900005
0.80014 1.10326 1.00014
0.800127 1.10309 1.10309
0.90025 0.497044 0.496929
0.900281 0.496897 0.599863
0.900285 0.49689 0.699996
0.900289 0.49689 0.80001
0.900391 0.49689 0.900118
0.902978 0.496907 1.00025
0.902944 0.497054 1.10295
0.902962 0.600009 0.496886
0.903111 0.600014 0.599857
0.903118 0.600014 0.699995
0.90312 0.600012 0.800003
0.903137 0.599995 0.900026
0.903241 0.599879 1.00016
0.903092 0.599874 1.1031
0.903096 0.700006 0.4969
0.903265 0.700008 0.599858
0.903273 0.700008 0.699994
0.903274 0.700007 0.8
0.903274 0.700005 0.900007
0.903268 0.699997 1.00014
0.903098 0.699996 1.1031
0.903099 0.8 0.496901
0.903269 0.8 0.599858
0.903277 0.8 0.699994
0.903278 0.8 0.8
0.903277 0.8 0.900006
0.903269 0.8 1.00014
0.903099 0.8 1.1031
0.903099 0.900004 0.496901
0.903268 0.900005 0.599858
0.903277 0.900006 0.699994
0.903277 0.900006 0.8
0.903277 0.900006 0.900006
0.903268 0.900005 1.00014
0.903099 0.900004 1.1031
0.903093 1.00013 0.496907
0.90326 1.00014 0.59986
0.903268 1.00014 0.699995
0.903269 1.00014 0.8
0.903268 1.00014 0.900005
0.90326 1.00014 1.00014
0.903093 1.00013 1.10309
0.902946 1.10295 0.497054
0.903093 1.10309 0.599873
0.903099 1.1031 0.699996
0.903099 1.1031 0.8
0.903099 1.1031 0.900004
0.903093 1.10309 1.00013
0.902946 1.10295 1.10295
1.00296 0.499855 0.497177
1.0031 0.499833 0.599884
1.00311 0.499831 0.699999
1.00311 0.499831 0.800102
1.00312 0.499831 0.902681
VERTICES 250 500
1 0
1 1
1 2
1 3
1 4
1 5
1 6
1 7
1 8
1 9
1 10
1 11
1 12
1 13
1 14
1 15
1 16
1 17
1 18
1 19
1 20
1 21
1 22
1 23
1 24
1 25
1 26
1 27
1 28
1 29
1 30
1 31
1 32
1 33
1 34
1 35
1 36
1 37
1 38
1 39
1 40
1 41
1 42
1 43
1 44
1 45
1 46
1 47
1 48
1 49
1 50
1 51
1 52
1 53
1 54
1 55
1 56
1 57
1 58
1 59
1 60
1 61
1 62
1 63
1 64
1 65
1 66
1 67
1 68
1 69
1 70
1 71
1 72
1 73
1 74
1 75
1 76
1 77
1 78
1 79
1 80
1 81
1 82
1 83
1 84
1 85
1 86
1 87
1 88
1 89
1 90
1 91
1 92
1 93
1 94
1 95
1 96
1 97
1 98
1 99
1 100
1 101
1 102
1 103
1 104
1 105
1 106
1 107
1 108
1 109
1 110
1 111
1 112
1 113
1 114
1 115
1 116
1 117
1 118
1 119
1 120
1 121
1 122
1 123
1 124
1 125
1 126
1 127
1 128
1 129
1 130
1 131
1 132
1 133
1 134
1 135
1 136
1 137
1 138
1 139
1 140
1 141
1 142
1 143
1 144
1 145
1 146
1 147
1 148
1 149
1 150
1 151
1 152
1 153
1 154
1 155
1 156
1 157
1 158
1 159
1 160
1 161
1 162
1 163
1 164
1 165
1 166
1 167
1 168
1 169
1 170
1 171
1 172
1 173
1 174
1 175
1 176
1 177
1 178
1 179
1 180
1 181
1 182
1 183
1 184
1 185
1 186
1 187
1 188
1 189
1 190
1 191
1 192
1 193
1 194
1 195
1 196
1 197
1 198
1 199
1 200
1 201
1 202
1 203
1 204
1 205
1 206
1 207
1 208
1 209
1 210
1 211
1 212
1 213
1 214
1 215
1 216
1 217
1 218
1 219
1 220
1 221
1 222
1 223
1 224
1 225
1 226
1 227
1 228
1 229
1 230
1 231
1 232
1 233
1 234
1 235
1 236
1 237
1 238
1 239
1 240
1 241
1 242
1 243
1 244
1 245
1 246
1 247
1 248
1 249
POINT_DATA 250
VECTORS velocity float
-0.0568352 -0.0568361 -0.0568361
-0.0596424 -0.0596438 -0.004398
-0.0598092 -0.0598108 -0.000174135
-0.0598195 -0.0598213 -2.13004e-07
-0.059809 -0.0598108 0.000174051
-0.0596419 -0.0596438 0.00439771
-0.0568348 -0.0568361 0.0568365
-0.0596421 -0.00439783 -0.0596439
-0.0628695 -0.00477733 -0.00477746
-0.0630717 -0.00482024 -0.000205622
-0.063085 -0.00482419 -2.00901e-07
-0.0630715 -0.00482028 0.000206352
-0.0628691 -0.00477737 0.00477727
-0.0596418 -0.00439786 0.0596441
-0.0598086 -0.000174037 -0.0598108
-0.0630714 -0.000205502 -0.00482037
-0.0632796 -0.000212555 -0.000212687
-0.0632937 -0.000213704 -2.42756e-07
-0.0632793 -0.000212624 0.000211916
-0.0630712 -0.000205578 0.00482161
-0.0598085 -0.000174069 0.0598101
-0.0598189 -2.00265e-07 -0.0598213
-0.0630847 -1.60547e-07 -0.00482431
-0.0632934 -1.82057e-07 -0.000213817
-0.0633081 -1.89195e-07 -2.58567e-07
-0.0632934 -2.08862e-07 0.000213134
-0.0630846 -2.02298e-07 0.00482585
-0.0598189 -2.43413e-07 0.0598207
-0.0598084 0.000173992 -0.0598108
-0.0630711 0.000206325 -0.00482036
-0.0632792 0.000211914 -0.000212719
-0.0632933 0.000213157 -2.70516e-07
-0.0632792 0.000211938 0.000211912
-0.063071 0.000206316 0.00482158
-0.0598084 0.000173804 0.0598101
-0.0596417 0.00439763 -0.0596438
-0.0628688 0.00477721 -0.0047774
-0.063071 0.00482158 -0.000205643
-0.0630845 0.00482584 -2.47229e-07
-0.063071 0.00482159 0.000206295
-0.0628687 0.0047772 0.00477719
-0.0596417 0.00439782 0.059644
-0.0568346 0.0568364 -0.0568361
-0.0596417 0.059644 -0.00439788
-0.0598084 0.0598101 -0.000174101
-0.0598188 0.0598206 -2.6937e-07
-0.0598084 0.0598101 0.000173789
-0.0596417 0.059644 0.00439782
-0.0568347 0.0568364 0.0568363
-0.00439218 -0.0596425 -0.0596432
-0.00477022 -0.0628702 -0.00477685
-0.00481192 -0.0630718 -0.00020531
-0.00481532 -0.0630854 5.76619e-08
-0.00481031 -0.0630718 0.000206519
-0.00476623 -0.0628701 0.00477676
-0.00438881 -0.0596426 0.0596432
-0.00476647 -0.00477623 -0.0628707
-0.00521376 -0.00522636 -0.00522696
-0.00526627 -0.00528147 -0.000245795
-0.00527127 -0.00528683 3.14951e-08
-0.00526547 -0.00528169 0.000246431
-0.00521235 -0.00522672 0.00522845
-0.00476527 -0.0047765 0.0628697
-0.00480726 -0.000204787 -0.0630721
-0.00526485 -0.000245041 -0.00528223
-0.00532165 -0.000253548 -0.000254209
-0.00532704 -0.000255329 -1.0927e-07
-0.00532157 -0.000253704 0.000255099
-0.00526425 -0.000245367 0.0052828
-0.00480668 -0.000205168 0.0630717
-0.00481031 8.68682e-09 -0.0630855
-0.00526913 1.28572e-07 -0.00528753
-0.00532652 1.22937e-07 -0.000255884
-0.0053317 2.12013e-07 -6.15932e-08
-0.00532639 2.39332e-08 0.000256069
-0.00526889 -3.80995e-08 0.00528841
-0.00481012 -1.65833e-07 0.0630848
-0.00480651 0.000206067 -0.063072
-0.00526406 0.000246144 -0.00528213
-0.00532089 0.000255047 -0.000254147
-0.00532619 0.000256125 -2.55113e-07
-0.00532081 0.000255009 0.000254932
-0.00526398 0.000246095 0.00528252
-0.00480648 0.00020599 0.0630716
-0.00476486 0.00477619 -0.0628703
-0.00521163 0.00522814 -0.00522672
-0.00526393 0.00528255 -0.000245804
-0.00526873 0.00528837 -1.91799e-07
-0.00526394 0.00528253 0.000246031
-0.00521161 0.00522808 0.00522806
-0.00476483 0.00477618 0.0628694
-0.00438826 0.0596429 -0.0596426
-0.00476482 0.0628694 -0.00477659
-0.00480642 0.0630716 -0.000205295
-0.00481002 0.0630847 -2.46852e-07
-0.00480642 0.0630716 0.00020595
-0.00476482 0.0628694 0.00477617
-0.00438825 0.0596429 0.0596429
-0.000130208 -0.0597977 -0.0598049
-0.000149044 -0.0630573 -0.00481703
-0.000152136 -0.0632648 -0.000211355
-0.000149977 -0.0632787 2.32342e-06
-0.000130715 -0.0632647 0.000216872
-2.31757e-05 -0.0630573 0.00482265
-3.36088e-06 -0.0597977 0.0597998
-2.96349e-05 -0.00480855 -0.0630605
-3.77822e-05 -0.0052674 -0.00527737
-3.94021e-05 -0.00532449 -0.00025276
-3.81214e-05 -0.00533088 1.34665e-06
-3.03972e-05 -0.00532689 0.000256159
-9.76708e-06 -0.00527351 0.0052798
-2.31326e-06 -0.00481463 0.0630583
-6.04831e-06 -0.000207834 -0.0632656
-7.6032e-06 -0.000248768 -0.00533444
-8.07143e-06 -0.000257792 -0.000261584
-7.64835e-06 -0.000259333 3.72321e-07
-5.5066e-06 -0.00025862 0.000263109
-2.9695e-06 -0.000251341 0.00533443
-7.66651e-07 -0.000210396 0.063265
-1.09534e-06 1.01958e-06 -0.0632789
-1.60974e-06 1.55693e-06 -0.00533968
-1.45243e-06 1.70667e-06 -0.000263371
-1.64402e-06 1.44091e-06 -8.24855e-08
-8.24306e-07 1.02332e-06 0.000264153
-6.0171e-07 5.92793e-07 0.00534012
-1.7119e-07 -5.52177e-10 0.0632785
-5.448e-08 0.000210849 -0.0632646
-1.55964e-07 0.000252834 -0.00533391
-5.69386e-08 0.000262618 -0.000261559
-3.77981e-08 0.000264268 -2.22145e-07
3.64229e-08 0.000262478 0.00026224
-2.21531e-09 0.000252632 0.00533332
1.89623e-07 0.00021064 0.0632644
1.82506e-07 0.00481546 -0.0630572
2.05068e-07 0.00527722 -0.00527598
1.04195e-07 0.00533339 -0.000252708
1.27946e-07 0.00533991 -9.99765e-08
1.25491e-07 0.00533333 0.000252445
2.41062e-07 0.00527713 0.00527708
2.61022e-07 0.00481541 0.0630564
2.62921e-07 0.0597975 -0.0597977
2.71258e-07 0.0630564 -0.00481512
2.5201e-07 0.0632644 -0.00021098
2.07316e-07 0.0632783 -2.67788e-07
2.57256e-07 0.0632644 0.000210536
2.76724e-07 0.0630564 0.00481538
2.71002e-07 0.0597976 0.0597975
0.000538878 -0.0596418 -0.0597687
0.0006406 -0.0628697 -0.00480486
0.000659635 -0.0630719 -0.000206852
0.000681556 -0.0630854 2.48656e-05
0.000956476 -0.0630722 0.00033351
0.00447513 -0.062869 0.0049081
0.00437013 -0.0596422 0.059666
0.00443054 -0.00464703 -0.0629051
0.00481513 -0.00507241 -0.00523757
0.00486002 -0.00512307 -0.000246309
0.00487237 -0.00513151 1.132e-05
0.0049298 -0.00515125 0.000279242
0.00513809 -0.00519905 0.00526467
0.00475604 -0.00477329 0.0628796
0.00478017 -0.000174892 -0.063078
0.00523041 -0.00020704 -0.00528475
0.00528495 -0.000214695 -0.000254363
0.00529247 -0.000217811 2.69166e-06
0.00529408 -0.000224069 0.000260179
0.00525438 -0.000234406 0.00528917
0.00480355 -0.000202826 0.0630741
0.00480712 5.64916e-06 -0.0630863
0.00526513 7.70517e-06 -0.00528816
0.00532211 8.10823e-06 -0.000255902
0.00532824 7.72656e-06 5.38471e-07
0.00532305 5.7266e-06 0.00025679
0.00526683 2.69613e-06 0.00528943
0.00480917 7.25686e-07 0.0630853
0.00480515 0.000206747 -0.0630721
0.00526328 0.000246771 -0.00528221
0.00531977 0.000255997 -0.000254214
0.00532529 0.000256856 -1.13684e-07
0.00531987 0.000255703 0.000255085
0.00526349 0.00024652 0.00528276
0.00480532 0.000206186 0.0630717
0.00476421 0.0047764 -0.0628703
0.00521054 0.0052285 -0.00522673
0.00526354 0.00528276 -0.000245804
0.00526784 0.00528865 -1.68449e-07
0.00526359 0.00528268 0.000246068
0.00521058 0.00522818 0.0052281
0.00476417 0.00477625 0.0628694
0.00438852 0.059643 -0.0596426
0.00476419 0.0628695 -0.00477663
0.00480539 0.0630717 -0.000205292
0.00480953 0.0630848 -2.41025e-07
0.0048054 0.0630717 0.000205959
0.00476419 0.0628694 0.00477619
0.00438852 0.059643 0.0596429
0.00640876 -0.0571933 -0.0592612
0.00709703 -0.0600317 -0.00469567
0.00716815 -0.0602001 -0.000175923
0.0072745 -0.0602104 0.000297686
0.00890223 -0.0602048 0.0021507
0.0575989 -0.0596454 0.00688187
0.056813 -0.0568352 0.0570743
0.0573098 -0.00188596 -0.06005
0.0601799 -0.00191742 -0.00484618
0.0603622 -0.00193671 -0.000206658
0.0603962 -0.0019642 7.47072e-05
0.0607083 -0.00228884 0.000588415
0.0625092 -0.00440942 0.00519454
0.0596276 -0.00437953 0.0597102
0.0597757 0.000130513 -0.0598368
0.0630257 0.000159582 -0.00482943
0.063232 0.00015982 -0.000213166
0.063248 0.000151419 9.91722e-06
0.0632463 9.45494e-05 0.000237485
0.0630552 -0.000136315 0.00484708
0.059806 -0.000166076 0.0598202
0.0598163 2.24067e-05 -0.0598238
0.0630808 2.95648e-05 -0.00482553
0.0632894 3.09671e-05 -0.000213918
0.0633038 2.94266e-05 1.11953e-06
0.0632906 2.23342e-05 0.00021597
0.0630833 8.61086e-06 0.00482749
0.0598187 1.93217e-06 0.0598224
0.0598085 0.000175273 -0.0598111
0.0630708 0.000207939 -0.00482055
0.0632787 0.00021371 -0.000212722
0.0632929 0.000215164 -7.00348e-08
0.0632789 0.000213361 0.000212253
0.063071 0.00020721 0.00482188
0.0598089 0.000174333 0.0598103
0.059642 0.00439808 -0.0596439
0.0628692 0.00477782 -0.00477744
0.0630712 0.0048222 -0.00020564
0.0630847 0.00482597 -2.01439e-07
0.0630712 0.00482194 0.00020637
0.0628692 0.00477739 0.00477725
0.059642 0.00439771 0.0596441
0.0568343 0.0568365 -0.0568361
0.059642 0.0596441 -0.00439789
0.059809 0.0598102 -0.000174107
0.0598192 0.059821 -2.58575e-07
0.059809 0.0598101 0.000173942
0.059642 0.0596441 0.00439761
0.0568344 0.0568365 0.0568365
0.057189 -0.00265925 -0.0545559
0.060045 -0.00309559 -0.00408686
0.0602171 -0.00313307 -4.18649e-05
0.0602302 -0.00313668 0.00369346
0.0604164 -0.00313039 0.0519863
VECTORS force float
-0.49117 -0.491185 -0.491186
-0.514751 -0.514772 -0.111376
-0.517808 -0.517829 -0.00604558
-0.518027 -0.518048 -1.74883e-06
-0.517802 -0.517829 0.00604718
-0.514744 -0.514772 0.111355
-0.491161 -0.491186 0.4912
-0.514746 -0.111373 -0.514773
-0.542075 -0.119105 -0.119107
-0.545666 -0.120052 -0.00686671
-0.545936 -0.120128 5.10895e-07
-0.545662 -0.120053 0.0068908
-0.54207 -0.119106 0.119079
-0.514741 -0.111373 0.51479
-0.517793 -0.0060443 -0.517829
-0.545659 -0.00686529 -0.120054
-0.549339 -0.00700624 -0.0070079
-0.54962 -0.00702106 -4.62196e-06
-0.549336 -0.00700779 0.00699506
-0.545658 -0.00686633 0.120066
-0.517793 -0.00604426 0.51782
-0.518014 -1.76688e-06 -0.518049
-0.545933 8.9828e-07 -0.120129
-0.549617 -3.96531e-06 -0.0070224
-0.549906 -1.76759e-06 -2.50308e-06
-0.549616 -4.2433e-06 0.00701008
-0.545932 3.61388e-07 0.120148
-0.518014 -2.25161e-06 0.518043
-0.517791 0.00604617 -0.517829
-0.545655 0.00689018 -0.120054
-0.549334 0.0069951 -0.00700871
-0.549616 0.00701027 -4.98959e-06
-0.549333 0.00699592 0.00699567
-0.545655 0.00689027 0.120065
-0.517792 0.00603998 0.51782
-0.514741 0.111353 -0.514772
-0.542066 0.119078 -0.119106
-0.545655 0.120065 -0.0068671
-0.545932 0.120148 -5.76867e-08
-0.545655 0.120065 0.00689019
-0.542065 0.119078 0.119078
-0.514741 0.111361 0.51479
-0.49116 0.491199 -0.491186
-0.514741 0.51479 -0.111374
-0.517793 0.51782 -0.00604453
-0.518014 0.518043 -2.46223e-06
-0.517792 0.51782 0.00603986
-0.514741 0.51479 0.111361
-0.491161 0.491196 0.491196
-0.111268 -0.514751 -0.514763
-0.118966 -0.542089 -0.119098
-0.119889 -0.545668 -0.00686332
-0.119948 -0.54594 4.60461e-06
-0.119852 -0.545668 0.00689603
-0.118803 -0.542088 0.119069
-0.111129 -0.514753 0.514781
-0.118806 -0.119089 -0.542098
-0.127692 -0.128024 -0.128033
-0.128802 -0.129182 -0.00787975
-0.128893 -0.129284 3.55337e-06
-0.12877 -0.129185 0.00788241
-0.127651 -0.128032 0.12805
-0.118787 -0.119093 0.542082
-0.119716 -0.00685471 -0.545671
-0.128757 -0.00786709 -0.129194
-0.129947 -0.00804615 -0.00805665
-0.130045 -0.00807098 1.45211e-06
-0.129946 -0.00804819 0.00808241
-0.12875 -0.00787164 0.12918
-0.119709 -0.00686193 0.545679
-0.119774 2.97743e-06 -0.54594
-0.128836 3.75123e-06 -0.129297
-0.130039 4.09408e-06 -0.00807798
-0.130141 3.77408e-06 4.62371e-07
-0.130037 2.8284e-06 0.00809588
-0.128834 1.74073e-06 0.129284
-0.119772 7.5069e-07 0.545942
-0.119707 0.00688689 -0.545669
-0.128749 0.00787765 -0.129195
-0.129938 0.0080818 -0.00805163
-0.130035 0.00809649 -2.61555e-06
-0.129937 0.00808098 0.00808017
-0.128748 0.00787689 0.129174
-0.119707 0.0068863 0.545679
-0.118782 0.119059 -0.542089
-0.12764 0.128045 -0.128033
-0.128748 0.129174 -0.00787698
-0.128832 0.129284 4.14926e-08
-0.128748 0.129174 0.00787629
-0.12764 0.128044 0.128044
-0.118782 0.119059 0.542079
-0.111123 0.514777 -0.514753
-0.118781 0.542079 -0.119094
-0.119705 0.545679 -0.00686328
-0.119771 0.545942 -2.53397e-08
-0.119706 0.545679 0.00688602
-0.118781 0.542079 0.119059
-0.111123 0.514777 0.514777
-0.00497095 -0.517569 -0.517739
-0.00552902 -0.545382 -0.120001
-0.00560826 -0.549048 -0.00700003
-0.0055694 -0.549327 4.96439e-05
-0.00500185 -0.549046 0.00713686
-0.000656661 -0.545378 0.120129
-6.70009e-05 -0.517572 0.517611
-0.00078096 -0.119804 -0.54543
-0.000929035 -0.12889 -0.129109
-0.0009581 -0.13009 -0.00803206
-0.000941326 -0.130204 2.37028e-05
-0.000797545 -0.130133 0.00810862
-0.000208844 -0.129042 0.129113
-4.26539e-05 -0.119948 0.545412
-0.000121902 -0.00693674 -0.549051
-0.000150288 -0.00797201 -0.13031
-0.000154833 -0.00815412 -0.00820907
-0.00014236 -0.00817606 7.22268e-06
-0.00011337 -0.00816534 0.00822994
-5.61511e-05 -0.00801416 0.130295
-1.23176e-05 -0.00698398 0.549047
-2.13365e-05 1.6894e-05 -0.549322
-3.02884e-05 2.61835e-05 -0.13041
-2.18491e-05 2.80123e-05 -0.00823478
-2.46996e-05 2.3964e-05 -6.39787e-08
-1.35942e-05 1.7189e-05 0.00824861
-1.27277e-05 1.0249e-05 0.130401
-5.82257e-06 5.60573e-07 0.549322
-2.66168e-06 0.00698158 -0.549038
-5.74122e-06 0.00805069 -0.130302
-9.96565e-07 0.00822503 -0.00820906
-7.77142e-07 0.00825001 -2.00139e-06
3.80599e-08 0.00822375 0.0082211
-4.06632e-06 0.0080483 0.130278
1.67564e-06 0.00697894 0.54904
-3.30519e-07 0.119949 -0.545375
1.4881e-06 0.129069 -0.129089
-8.02197e-07 0.130279 -0.0080301
-9.05397e-07 0.130399 1.01643e-07
-6.1469e-07 0.130278 0.00804621
1.85233e-06 0.129068 0.129067
2.32309e-06 0.119949 0.545385
2.79389e-06 0.517573 -0.517572
2.43692e-06 0.545386 -0.119952
2.51574e-06 0.54904 -0.00699268
-1.27223e-07 0.54932 -2.48417e-06
2.48367e-06 0.54904 0.00697788
2.36594e-06 0.545385 0.119949
2.87573e-06 0.517574 0.517573
0.0130695 -0.514761 -0.517263
0.0150265 -0.542117 -0.119806
0.0153613 -0.545703 -0.00692356
0.0157855 -0.545977 0.000517861
0.0216067 -0.545706 0.00952431
0.112978 -0.54207 0.121852
0.110858 -0.514747 0.515208
0.112439 -0.116685 -0.542606
0.120284 -0.125256 -0.128194
0.121258 -0.126339 -0.0079108
0.121465 -0.12648 0.000193867
0.122394 -0.126757 0.00837455
0.126469 -0.12763 0.128576
0.118681 -0.119057 0.542246
0.119342 -0.006327 -0.545744
0.128287 -0.00721905 -0.129233
0.129446 -0.00738547 -0.00805526
0.129566 -0.00742708 4.04147e-05
0.129561 -0.00751458 0.00813996
0.128636 -0.00771298 0.129268
0.119674 -0.00683218 0.545706
0.119742 0.000110086 -0.545951
0.128802 0.000149258 -0.129304
0.12999 0.000154388 -0.00808018
0.130101 0.000149134 1.15554e-05
0.130001 0.000111382 0.00809781
0.128817 4.85364e-05 0.129302
0.119764 1.39991e-05 0.545947
0.119692 0.00689422 -0.54567
0.128749 0.00788313 -0.129193
0.129923 0.0080911 -0.0080563
0.13003 0.00809755 1.31099e-06
0.129924 0.00808763 0.00808092
0.128751 0.00788167 0.12918
0.119691 0.00688854 0.545678
0.118782 0.119061 -0.54209
0.127633 0.12805 -0.128033
0.128747 0.129177 -0.00787742
0.128825 0.129291 3.31609e-07
0.128748 0.129176 0.00787688
0.127633 0.128045 0.128045
0.118778 0.11906 0.542078
0.11113 0.514778 -0.514754
0.118778 0.54208 -0.119094
0.119691 0.54568 -0.00686341
0.119766 0.545943 4.48147e-08
0.119691 0.545679 0.00688634
0.118778 0.542079 0.119059
0.111129 0.514777 0.514777
0.116 -0.500202 -0.512422
0.125039 -0.524543 -0.117819
0.126359 -0.527663 -0.00608589
0.128421 -0.527853 0.00638406
0.129496 -0.527837 0.0160579
0.503456 -0.514886 0.133473
0.491271 -0.491155 0.496117
0.500958 -0.0942254 -0.518166
0.525421 -0.0995347 -0.120254
0.528774 -0.100152 -0.00687059
0.529324 -0.100581 0.00131002
0.530999 -0.10236 0.00960462
0.539524 -0.116448 0.12278
0.514674 -0.111211 0.515867
0.517987 0.000181552 -0.5181
0.54582 0.000401735 -0.120184
0.549491 0.000384684 -0.00702221
0.549787 0.000265798 0.000152529
0.549528 -0.000721462 0.007242
0.545593 -0.00572489 0.120361
0.517778 -0.00594177 0.517951
0.517999 0.000579809 -0.518079
0.545903 0.000737441 -0.120144
0.549593 0.000755497 -0.00702503
0.549875 0.000728262 1.54373e-05
0.5496 0.000593709 0.00704444
0.54592 0.000185439 0.120174
0.518015 3.30292e-05 0.51806
0.517794 0.0060528 -0.517831
0.54565 0.00690145 -0.120056
0.549331 0.00700964 -0.00700898
0.549612 0.00703068 -2.55472e-07
0.549331 0.00700358 0.00699462
0.545653 0.00689903 0.120071
0.517799 0.0060492 0.51782
0.51474 0.111362 -0.514772
0.542067 0.119087 -0.119107
0.545655 0.120077 -0.00686688
0.545932 0.120151 4.56613e-07
0.545656 0.120073 0.00689057
0.542067 0.11908 0.119078
0.514742 0.111354 0.51479
0.491153 0.4912 -0.491186
0.514742 0.514791 -0.111374
0.5178 0.517821 -0.0060446
0.518019 0.518046 -2.36747e-06
0.5178 0.51782 0.00604517
0.514742 0.51479 0.111353
0.491154 0.4912 0.4912
0.499834 -0.018107 -0.474643
0.524615 -0.0218697 -0.105012
0.527819 -0.0223328 -0.000948524
0.528137 -0.0223806 0.0976168
0.532769 -0.0221879 0.458277
SCALARS mass float 1
LOOKUP_TABLE default
1
1
1
1
1
1
1
1
1
1
1
1
1
1
1
1
1
1
1
1
1
1
1
1
1
1
1
1
1
1
1
1
1
1
1
1
1
1
1
1
1
1
1
1
1
1
1
1
1
1
1
1
1
1
1
1
1
1
1
1
1
1
1
1
1
1
1
1
1
1
1
1
1
1
1
1
1
1
1
1
1
1
1
1
1
1
1
1
1
1
1
1
1
1
1
1
1
1
1
1
1
1
1
1
1
1
1
1
1
1
1
1
1
1
1
1
1
1
1
1
1
1
1
1
1
1
1
1
1
1
1
1
1
1
1
1
1
1
1
1
1
1
1
1
1
1
1
1
1
1
1
1
1
1
1
1
1
1
1
1
1
1
1
1
1
1
1
1
1
1
1
1
1
1
1
1
1
1
1
1
1
1
1
1
1
1
1
1
1
1
1
1
1
1
1
1
1
1
1
1
1
1
1
1
1
1
1
1
1
1
1
1
1
1
1
1
1
1
1
1
1
1
1
1
1
1
1
1
1
1
1
1
1
1
1
1
1
1
1
1
1
1
1
1
1
1
1
1
1
1
