# vtk DataFile Version 3.0
Molecular Dynamics Particle Data
ASCII
DATASET POLYDATA
POINTS 500 float
0.437124 0.437124 0.437124
0.434206 0.434206 0.571733
0.433492 0.433492 0.688641
0.433304 0.433304 0.797128
0.433304 0.433304 0.902871
0.433492 0.433492 1.01136
0.434206 0.434206 1.12827
0.437124 0.437124 1.26287
0.434206 0.571733 0.434206
0.430801 0.57046 0.57046
0.429975 0.570002 0.688041
0.429756 0.569846 0.796947
0.429756 0.569846 0.903054
0.429975 0.570002 1.01196
0.430801 0.57046 1.12954
0.434206 0.571733 1.26579
0.433492 0.688641 0.433492
0.429975 0.688041 0.570002
0.429102 0.687802 0.687802
0.42887 0.687712 0.796872
0.42887 0.687712 0.903127
0.429102 0.687802 1.0122
0.429975 0.688041 1.13
0.433492 0.688641 1.26651
0.433304 0.797128 0.433304
0.429756 0.796947 0.569846
0.42887 0.796872 0.687712
0.428631 0.796843 0.796843
0.428631 0.796843 0.903157
0.42887 0.796872 1.01229
0.429757 0.796948 1.13015
0.433304 0.797128 1.26669
0.433304 0.902871 0.433304
0.429756 0.903054 0.569846
0.42887 0.903127 0.687711
0.428631 0.903157 0.796843
0.428631 0.903157 0.903157
0.42887 0.903127 1.01229
0.429757 0.903054 1.13015
0.433304 0.902871 1.26669
0.433492 1.01136 0.433492
0.429975 1.01196 0.570002
0.429103 1.0122 0.687802
0.42887 1.01229 0.796872
0.42887 1.01229 0.903127
0.429103 1.0122 1.0122
0.429976 1.01196 1.13
0.433493 1.01136 1.26651
0.434206 1.12827 0.434206
0.430802 1.12954 0.57046
0.429976 1.13 0.688041
0.429757 1.13015 0.796948
0.429758 1.13015 0.903054
0.429977 1.13 1.01196
0.430803 1.12954 1.12954
0.434207 1.12827 1.26579
0.437125 1.26287 0.437124
0.434207 1.26579 0.571733
0.433494 1.26651 0.688641
0.433306 1.26669 0.797128
0.433306 1.26669 0.902871
0.433494 1.26651 1.01136
0.434208 1.26579 1.12827
0.437125 1.26287 1.26287
0.571733 0.434206 0.434206
0.57046 0.430801 0.57046
0.570002 0.429975 0.688041
0.569846 0.429756 0.796947
0.569846 0.429756 0.903054
0.570002 0.429975 1.01196
0.57046 0.430801 1.12954
0.571733 0.434206 1.26579
0.57046 0.57046 0.430801
0.569021 0.569021 0.569021
0.568496 0.568496 0.687362
0.568319 0.568319 0.796741
0.568319 0.568319 0.90326
0.568496 0.568496 1.01264
0.569021 0.569021 1.13098
0.57046 0.57046 1.2692
0.570002 0.688041 0.429975
0.568496 0.687362 0.568496
0.567942 0.687089 0.687089
0.567755 0.686988 0.796656
0.567755 0.686988 0.903345
0.567942 0.68709 1.01291
0.568496 0.687362 1.1315
0.570002 0.688041 1.27002
0.569846 0.796947 0.429756
0.568319 0.796741 0.568319
0.567755 0.796656 0.686988
0.567562 0.796623 0.796622
0.567562 0.796623 0.903379
0.567755 0.796656 1.01301
0.568319 0.796741 1.13168
0.569846 0.796948 1.27024
0.569846 0.903054 0.429756
0.568319 0.90326 0.568319
0.567755 0.903345 0.686988
0.567563 0.903379 0.796623
0.567564 0.90338 0.903379
0.567757 0.903345 1.01301
0.568321 0.90326 1.13168
0.569848 0.903054 1.27024
0.570003 1.01196 0.429975
0.568498 1.01264 0.568496
0.567945 1.01291 0.68709
0.567759 1.01301 0.796656
0.567765 1.01302 0.903345
0.567954 1.01291 1.01291
0.568508 1.01264 1.1315
0.570011 1.01196 1.27002
0.570468 1.12954 0.430801
0.569029 1.13098 0.569021
0.568507 1.1315 0.687363
0.568336 1.13168 0.796743
0.568376 1.13168 0.903261
0.568557 1.1315 1.01264
0.569078 1.13098 1.13098
0.570513 1.12954 1.2692
0.57178 1.26579 0.434207
0.570512 1.2692 0.570461
0.570056 1.27002 0.688042
0.569904 1.27024 0.796948
0.569908 1.27024 0.903054
0.570064 1.27002 1.01196
0.57052 1.2692 1.12954
0.571787 1.26579 1.26579
0.688641 0.433492 0.433492
0.688041 0.429975 0.570002
0.687802 0.429102 0.687802
0.687712 0.42887 0.796872
0.687712 0.42887 0.903127
0.687802 0.429102 1.0122
0.688041 0.429975 1.13
0.688641 0.433492 1.26651
0.688041 0.570002 0.429975
0.687362 0.568496 0.568496
0.687089 0.567942 0.687089
0.686988 0.567755 0.796656
0.686988 0.567755 0.903345
0.68709 0.567942 1.01291
0.687362 0.568496 1.1315
0.688041 0.570002 1.27002
0.687802 0.687802 0.429102
0.68709 0.68709 0.567942
0.686803 0.686803 0.686802
0.686694 0.686694 0.796565
0.686694 0.686694 0.903435
0.686803 0.686803 1.0132
0.68709 0.68709 1.13206
0.687802 0.687802 1.2709
0.687712 0.796872 0.42887
0.686988 0.796656 0.567755
0.686694 0.796565 0.686694
0.686584 0.79653 0.79653
0.686585 0.796531 0.90347
0.686697 0.796567 1.01331
0.68699 0.796657 1.13225
0.687714 0.796873 1.27113
0.687713 0.903128 0.42887
0.68699 0.903346 0.567755
0.686697 0.903437 0.686694
0.686588 0.903472 0.79653
0.686594 0.903474 0.90347
0.686707 0.90344 1.01331
0.687 0.90335 1.13225
0.687721 0.903131 1.27113
0.687809 1.0122 0.429103
0.6871 1.01291 0.567943
0.686816 1.0132 0.686804
0.68672 1.01331 0.796568
0.68677 1.01332 0.903439
0.686889 1.01321 1.0132
0.687173 1.01293 1.13206
0.68787 1.01221 1.2709
0.6881 1.13001 0.429977
0.687434 1.13151 0.568498
0.687171 1.13207 0.687095
0.687114 1.13225 0.796673
0.687632 1.13226 0.90336
0.687764 1.13207 1.01291
0.688016 1.13151 1.13149
0.688647 1.13001 1.27002
0.689199 1.26651 0.433499
0.688642 1.27002 0.570009
0.688423 1.2709 0.687807
0.688352 1.27113 0.796876
0.688389 1.27112 0.903128
0.688479 1.27089 1.01219
0.688697 1.27002 1.12999
0.689246 1.2665 1.2665
0.797128 0.433304 0.433304
0.796947 0.429756 0.569846
0.796872 0.42887 0.687712
0.796843 0.428631 0.796843
0.796843 0.428631 0.903157
0.796872 0.42887 1.01229
0.796947 0.429756 1.13015
0.797128 0.433304 1.26669
0.796947 0.569846 0.429756
0.796741 0.568319 0.568319
0.796656 0.567755 0.686988
0.796623 0.567562 0.796622
0.796623 0.567562 0.903379
0.796656 0.567755 1.01301
0.796741 0.568319 1.13168
0.796948 0.569846 1.27024
0.796872 0.687712 0.42887
0.796656 0.686988 0.567755
0.796565 0.686694 0.686694
0.79653 0.686584 0.79653
0.796531 0.686585 0.90347
0.796567 0.686696 1.01331
0.796657 0.68699 1.13225
0.796873 0.687713 1.27113
0.796844 0.796844 0.428631
0.796624 0.796624 0.567561
0.796531 0.796532 0.686583
0.796498 0.796497 0.796494
0.796501 0.796501 0.903507
0.796539 0.796538 1.01342
0.79663 0.79663 1.13244
0.796849 0.796849 1.27137
0.796848 0.90316 0.428631
0.796629 0.903384 0.567562
0.79654 0.903475 0.686584
0.796508 0.903517 0.796496
0.796527 0.903529 0.903509
0.796568 0.903494 1.01342
0.796658 0.903402 1.13244
0.796872 0.903177 1.27137
0.796898 1.0123 0.428871
0.796689 1.01302 0.567757
0.796607 1.01332 0.686699
0.796603 1.01344 0.796543
0.796749 1.01349 0.903482
0.796816 1.01338 1.01331
0.796898 1.01309 1.13224
0.797069 1.01235 1.27112
0.797155 1.13019 0.429764
0.796992 1.13172 0.568328
0.796935 1.13229 0.687013
0.796987 1.13248 0.79671
0.79969 1.13249 0.903454
0.799783 1.13229 1.013
0.799801 1.13172 1.13164
0.799839 1.13019 1.2702
0.799833 1.26669 0.433343
0.799803 1.27024 0.569887
0.799796 1.27113 0.687742
0.799819 1.27136 0.796862
0.799946 1.27133 0.903157
0.799975 1.27108 1.01226
0.799981 1.2702 1.13011
0.799983 1.26666 1.26665
0.902871 0.433304 0.433304
0.903054 0.429756 0.569846
0.903127 0.42887 0.687712
0.903157 0.428631 0.796843
0.903157 0.428631 0.903157
0.903127 0.42887 1.01229
0.903054 0.429757 1.13015
0.902871 0.433304 1.26669
0.903054 0.569846 0.429756
0.90326 0.568319 0.568319
0.903345 0.567755 0.686988
0.90338 0.567563 0.796623
0.90338 0.567564 0.903379
0.903346 0.567756 1.01301
0.903261 0.56832 1.13168
0.903054 0.569848 1.27024
0.903128 0.687713 0.42887
0.903346 0.68699 0.567755
0.903437 0.686696 0.686694
0.903472 0.686587 0.79653
0.903474 0.686592 0.90347
0.90344 0.686704 1.01331
0.903349 0.686998 1.13225
0.903131 0.687719 1.27113
0.903161 0.796848 0.428631
0.903384 0.796629 0.567562
0.903475 0.796539 0.686584
0.903517 0.796507 0.796496
0.903527 0.796526 0.903509
0.903495 0.796566 1.01342
0.9034 0.796656 1.13244
0.903175 0.79687 1.27136
0.903172 0.903172 0.428632
0.903396 0.903396 0.567565
0.903493 0.903493 0.686587
0.903537 0.903537 0.796501
0.903588 0.903596 0.903512
0.90356 0.903568 1.01342
0.903464 0.90347 1.13243
0.90323 0.903236 1.27136
0.90319 1.01233 0.428875
0.903422 1.01306 0.567763
0.903526 1.01336 0.686714
0.903599 1.01349 0.796563
0.903692 1.01367 0.9035
0.903706 1.01357 1.01331
0.903606 1.01326 1.13223
0.903311 1.01251 1.2711
0.903426 1.13027 0.429784
0.90372 1.13182 0.568353
0.903868 1.13239 0.687091
0.903689 1.13259 0.796936
0.911901 1.13261 0.903611
0.911815 1.13242 1.01301
0.911594 1.13184 1.13153
0.911052 1.1303 1.27005
0.910414 1.26669 0.433474
0.910898 1.27024 0.569996
0.911103 1.27112 0.687812
0.911216 1.27134 0.7969
0.911499 1.2712 0.903156
0.911469 1.27095 1.01221
0.91126 1.27007 1.13
0.910722 1.26654 1.2665
1.01136 0.433492 0.433492
1.01196 0.429975 0.570002
1.0122 0.429103 0.687802
1.01229 0.42887 0.796872
1.01229 0.42887 0.903127
1.0122 0.429103 1.0122
1.01196 0.429976 1.13
1.01136 0.433493 1.26651
1.01196 0.570003 0.429975
1.01264 0.568498 0.568496
1.01291 0.567945 0.68709
1.01301 0.567759 0.796656
1.01302 0.567763 0.903345
1.01291 0.567952 1.01291
1.01264 0.568505 1.1315
1.01196 0.570009 1.27002
1.0122 0.687809 0.429103
1.01291 0.6871 0.567943
1.0132 0.686816 0.686804
1.01331 0.686714 0.796567
1.01332 0.68674 0.903437
1.01321 0.686854 1.0132
1.01292 0.687139 1.13206
1.01221 0.687842 1.2709
1.0123 0.796898 0.428871
1.01302 0.796689 0.567757
1.01332 0.796604 0.686698
1.01344 0.796583 0.796537
1.01347 0.796675 0.903476
1.01337 0.796723 1.01331
1.01307 0.796807 1.13224
1.01234 0.797001 1.27112
1.01233 0.90319 0.428876
1.01306 0.90342 0.567763
1.01336 0.90352 0.686708
1.01349 0.903574 0.79655
1.01364 0.903812 0.903486
1.01354 0.903795 1.01331
1.01324 0.903692 1.13223
1.01249 0.903435 1.27111
1.01234 1.01234 0.42912
1.01308 1.01308 0.567973
1.01339 1.01338 0.686857
1.01354 1.0135 0.796621
1.013 1.01408 0.903493
1.01296 1.01399 1.01322
1.01267 1.01367 1.13203
1.01187 1.01289 1.27082
1.01235 1.1304 0.430052
1.01317 1.13195 0.568623
1.01361 1.13253 0.687501
1.01217 1.13274 0.797706
1.03184 1.13263 0.903623
1.03108 1.13246 1.013
1.03058 1.13188 1.13113
1.0293 1.13031 1.26931
1.02764 1.26649 0.434115
1.02878 1.26999 0.570427
1.02922 1.27086 0.688068
1.02941 1.27107 0.797012
1.02995 1.27057 0.903135
1.02988 1.2703 1.01202
1.02943 1.26945 1.12957
1.02818 1.266 1.26581
1.12827 0.434206 0.434206
1.12954 0.430802 0.57046
1.13 0.429976 0.688041
1.13015 0.429758 0.796948
1.13015 0.429759 0.903054
1.13 0.429978 1.01196
1.12954 0.430804 1.12954
1.12827 0.434208 1.26579
1.12954 0.570468 0.430801
1.13098 0.56903 0.569021
1.1315 0.568508 0.687363
1.13169 0.568339 0.796743
1.13169 0.568371 0.903262
1.13151 0.568556 1.01264
1.13099 0.569078 1.13098
1.12955 0.570508 1.2692
1.13 0.6881 0.429977
1.13151 0.687435 0.568498
1.13207 0.687172 0.687095
1.13226 0.687105 0.796668
1.13229 0.687305 0.903355
1.1321 0.68744 1.01291
1.13155 0.687702 1.1315
1.13004 0.688327 1.27002
1.13019 0.797155 0.429765
1.13172 0.796993 0.568329
1.13229 0.79693 0.687008
1.1325 0.796942 0.796659
1.1326 0.797436 0.903411
1.13242 0.797531 1.01302
1.13185 0.797594 1.13166
1.1303 0.797673 1.27021
1.13027 0.903427 0.429786
1.13182 0.903718 0.568352
1.1324 0.903841 0.687043
1.13261 0.903878 0.796704
1.13317 0.904754 0.90345
1.13299 0.904791 1.01303
1.1324 0.904673 1.13164
1.13081 0.904279 1.27015
1.1304 1.01235 0.430062
1.13197 1.01315 0.568642
1.13257 1.01349 0.687266
1.1329 1.01354 0.796786
1.13097 1.01558 0.903534
1.13095 1.0156 1.01299
1.13039 1.01527 1.13143
1.12887 1.01434 1.26984
1.12994 1.12993 0.431113
1.13158 1.13149 0.569778
1.13268 1.13207 0.689238
1.12846 1.1325 0.800941
1.16905 1.13136 0.902133
1.16808 1.13212 1.01283
1.16729 1.13152 1.13034
1.16445 1.12988 1.26629
1.16141 1.26616 0.436764
1.16397 1.26963 0.571682
1.16473 1.27036 0.688737
1.16502 1.27054 0.797276
1.16626 1.26856 0.903161
1.16653 1.26802 1.01164
1.16579 1.26726 1.12842
1.16288 1.26412 1.26293
1.26287 0.437125 0.437124
1.26579 0.434207 0.571733
1.26651 0.433494 0.688641
1.26669 0.433308 0.797129
1.26669 0.433317 0.902871
1.26651 0.433506 1.01136
1.2658 0.43422 1.12827
1.26288 0.437137 1.26287
1.26579 0.57178 0.434207
1.2692 0.570513 0.570461
1.27002 0.570061 0.688045
1.27025 0.569938 0.79696
1.27025 0.570259 0.903065
1.27003 0.570435 1.01196
1.2692 0.570881 1.12953
1.2658 0.572125 1.26579
1.26651 0.6892 0.4335
1.27002 0.688645 0.570012
1.2709 0.688442 0.687827
1.27113 0.688449 0.796955
1.27113 0.690983 0.903198
1.2709 0.691128 1.01219
1.27002 0.691294 1.12996
1.26651 0.691715 1.26646
1.26669 0.799835 0.433345
1.27024 0.799816 0.569903
1.27113 0.799856 0.687832
1.27137 0.799632 0.797167
1.27137 0.808131 0.903381
1.27113 0.808079 1.01228
1.27024 0.807961 1.12999
1.2667 0.807667 1.26649
1.26669 0.910418 0.433482
1.27024 0.910936 0.57008
1.27113 0.911304 0.688189
1.27137 0.909853 0.797913
1.27133 0.929192 0.903413
1.2711 0.928469 1.01232
1.27021 0.928065 1.1297
1.26667 0.927016 1.26592
1.26649 1.02765 0.434181
1.27 1.02889 0.571002
1.27087 1.0299 0.689652
1.27119 1.02618 0.800686
1.27324 1.06262 0.902585
1.27323 1.06263 1.01234
1.27224 1.06196 1.12912
1.26842 1.05964 1.26345
1.26618 1.16141 0.437428
1.2697 1.16395 0.579993
1.27051 1.16455 0.717264
1.27341 1.16834 0.854721
VERTICES 500 1000
1 0
1 1
1 2
1 3
1 4
1 5
1 6
1 7
1 8
1 9
1 10
1 11
1 12
1 13
1 14
1 15
1 16
1 17
1 18
1 19
1 20
1 21
1 22
1 23
1 24
1 25
1 26
1 27
1 28
1 29
1 30
1 31
1 32
1 33
1 34
1 35
1 36
1 37
1 38
1 39
1 40
1 41
1 42
1 43
1 44
1 45
1 46
1 47
1 48
1 49
1 50
1 51
1 52
1 53
1 54
1 55
1 56
1 57
1 58
1 59
1 60
1 61
1 62
1 63
1 64
1 65
1 66
1 67
1 68
1 69
1 70
1 71
1 72
1 73
1 74
1 75
1 76
1 77
1 78
1 79
1 80
1 81
1 82
1 83
1 84
1 85
1 86
1 87
1 88
1 89
1 90
1 91
1 92
1 93
1 94
1 95
1 96
1 97
1 98
1 99
1 100
1 101
1 102
1 103
1 104
1 105
1 106
1 107
1 108
1 109
1 110
1 111
1 112
1 113
1 114
1 115
1 116
1 117
1 118
1 119
1 120
1 121
1 122
1 123
1 124
1 125
1 126
1 127
1 128
1 129
1 130
1 131
1 132
1 133
1 134
1 135
1 136
1 137
1 138
1 139
1 140
1 141
1 142
1 143
1 144
1 145
1 146
1 147
1 148
1 149
1 150
1 151
1 152
1 153
1 154
1 155
1 156
1 157
1 158
1 159
1 160
1 161
1 162
1 163
1 164
1 165
1 166
1 167
1 168
1 169
1 170
1 171
1 172
1 173
1 174
1 175
1 176
1 177
1 178
1 179
1 180
1 181
1 182
1 183
1 184
1 185
1 186
1 187
1 188
1 189
1 190
1 191
1 192
1 193
1 194
1 195
1 196
1 197
1 198
1 199
1 200
1 201
1 202
1 203
1 204
1 205
1 206
1 207
1 208
1 209
1 210
1 211
1 212
1 213
1 214
1 215
1 216
1 217
1 218
1 219
1 220
1 221
1 222
1 223
1 224
1 225
1 226
1 227
1 228
1 229
1 230
1 231
1 232
1 233
1 234
1 235
1 236
1 237
1 238
1 239
1 240
1 241
1 242
1 243
1 244
1 245
1 246
1 247
1 248
1 249
1 250
1 251
1 252
1 253
1 254
1 255
1 256
1 257
1 258
1 259
1 260
1 261
1 262
1 263
1 264
1 265
1 266
1 267
1 268
1 269
1 270
1 271
1 272
1 273
1 274
1 275
1 276
1 277
1 278
1 279
1 280
1 281
1 282
1 283
1 284
1 285
1 286
1 287
1 288
1 289
1 290
1 291
1 292
1 293
1 294
1 295
1 296
1 297
1 298
1 299
1 300
1 301
1 302
1 303
1 304
1 305
1 306
1 307
1 308
1 309
1 310
1 311
1 312
1 313
1 314
1 315
1 316
1 317
1 318
1 319
1 320
1 321
1 322
1 323
1 324
1 325
1 326
1 327
1 328
1 329
1 330
1 331
1 332
1 333
1 334
1 335
1 336
1 337
1 338
1 339
1 340
1 341
1 342
1 343
1 344
1 345
1 346
1 347
1 348
1 349
1 350
1 351
1 352
1 353
1 354
1 355
1 356
1 357
1 358
1 359
1 360
1 361
1 362
1 363
1 364
1 365
1 366
1 367
1 368
1 369
1 370
1 371
1 372
1 373
1 374
1 375
1 376
1 377
1 378
1 379
1 380
1 381
1 382
1 383
1 384
1 385
1 386
1 387
1 388
1 389
1 390
1 391
1 392
1 393
1 394
1 395
1 396
1 397
1 398
1 399
1 400
1 401
1 402
1 403
1 404
1 405
1 406
1 407
1 408
1 409
1 410
1 411
1 412
1 413
1 414
1 415
1 416
1 417
1 418
1 419
1 420
1 421
1 422
1 423
1 424
1 425
1 426
1 427
1 428
1 429
1 430
1 431
1 432
1 433
1 434
1 435
1 436
1 437
1 438
1 439
1 440
1 441
1 442
1 443
1 444
1 445
1 446
1 447
1 448
1 449
1 450
1 451
1 452
1 453
1 454
1 455
1 456
1 457
1 458
1 459
1 460
1 461
1 462
1 463
1 464
1 465
1 466
1 467
1 468
1 469
1 470
1 471
1 472
1 473
1 474
1 475
1 476
1 477
1 478
1 479
1 480
1 481
1 482
1 483
1 484
1 485
1 486
1 487
1 488
1 489
1 490
1 491
1 492
1 493
1 494
1 495
1 496
1 497
1 498
1 499
POINT_DATA 500
VECTORS velocity float
-0.149744 -0.149744 -0.149744
-0.156271 -0.156271 -0.100802
-0.158804 -0.158804 -0.0591914
-0.159706 -0.159706 -0.0198243
-0.159706 -0.159706 0.0198225
-0.158803 -0.158804 0.0591897
-0.156272 -0.156271 0.1008
-0.149744 -0.149744 0.149745
-0.156271 -0.100802 -0.156271
-0.163946 -0.104391 -0.104391
-0.166851 -0.10621 -0.0614397
-0.167876 -0.107028 -0.0206665
-0.167876 -0.107028 0.0206745
-0.166851 -0.10621 0.0614358
-0.163946 -0.104391 0.10439
-0.156271 -0.100802 0.156275
-0.158804 -0.0591913 -0.158804
-0.16685 -0.0614391 -0.10621
-0.169942 -0.0625908 -0.0625914
-0.171039 -0.0631305 -0.0210968
-0.171039 -0.0631307 0.0210986
-0.169942 -0.062591 0.0625841
-0.166851 -0.0614393 0.106213
-0.158803 -0.0591902 0.158801
-0.159706 -0.0198242 -0.159706
-0.167876 -0.0206671 -0.107028
-0.171039 -0.0210969 -0.0631305
-0.172172 -0.0212948 -0.021295
-0.172172 -0.0212948 0.021293
-0.171038 -0.0210968 0.0631314
-0.167876 -0.0206662 0.107029
-0.159705 -0.0198245 0.159705
-0.159705 0.0198226 -0.159706
-0.167876 0.0206743 -0.107028
-0.171039 0.0210991 -0.0631301
-0.172171 0.0212932 -0.0212955
-0.17217 0.0212938 0.0212932
-0.171038 0.0210995 0.0631314
-0.167875 0.0206746 0.107028
-0.159704 0.0198225 0.159705
-0.158803 0.05919 -0.158803
-0.166849 0.0614366 -0.10621
-0.16994 0.0625838 -0.0625908
-0.171037 0.0631318 -0.0210967
-0.171034 0.0631321 0.0210992
-0.169936 0.0625848 0.0625835
-0.166845 0.0614371 0.106214
-0.158799 0.0591907 0.1588
-0.156268 0.1008 -0.156271
-0.163943 0.104391 -0.104391
-0.166846 0.106215 -0.0614391
-0.167869 0.107029 -0.0206654
-0.167859 0.107029 0.0206748
-0.166831 0.106215 0.0614351
-0.163929 0.104391 0.10439
-0.156256 0.100801 0.156275
-0.14973 0.149745 -0.149744
-0.156256 0.156276 -0.100802
-0.158787 0.158801 -0.0591902
-0.159686 0.159705 -0.019825
-0.159684 0.159704 0.0198229
-0.158783 0.1588 0.0591894
-0.156252 0.156275 0.100801
-0.149727 0.149745 0.149744
-0.100802 -0.156271 -0.156271
-0.104391 -0.163946 -0.104391
-0.10621 -0.16685 -0.0614397
-0.107028 -0.167876 -0.0206665
-0.107028 -0.167876 0.0206745
-0.10621 -0.166851 0.0614358
-0.104391 -0.163946 0.10439
-0.100802 -0.156271 0.156275
-0.104391 -0.104391 -0.163946
-0.108391 -0.108391 -0.108391
-0.110438 -0.110438 -0.0639243
-0.111357 -0.111357 -0.0216085
-0.111356 -0.111356 0.0216106
-0.110438 -0.110438 0.0639245
-0.108391 -0.108391 0.108391
-0.104391 -0.104391 0.163946
-0.10621 -0.061439 -0.16685
-0.110438 -0.0639244 -0.110438
-0.112613 -0.065201 -0.0652014
-0.113582 -0.0657983 -0.0220685
-0.113582 -0.0657981 0.0220713
-0.112612 -0.0652006 0.0651978
-0.110438 -0.0639237 0.110439
-0.106209 -0.0614387 0.166848
-0.107027 -0.020667 -0.167876
-0.111356 -0.0216075 -0.111357
-0.113582 -0.0220678 -0.065799
-0.114582 -0.0222872 -0.0222886
-0.11458 -0.0222859 0.0222932
-0.113579 -0.0220661 0.0657985
-0.111354 -0.0216063 0.111357
-0.107025 -0.0206655 0.167877
-0.107026 0.020675 -0.167876
-0.111354 0.0216118 -0.111356
-0.113578 0.0220735 -0.0657984
-0.114574 0.0222976 -0.0222872
-0.114566 0.0223015 0.0222937
-0.113563 0.0220792 0.0657986
-0.111339 0.0216186 0.111357
-0.107014 0.0206795 0.167878
-0.106198 0.061439 -0.16685
-0.110421 0.0639278 -0.110437
-0.112591 0.0652013 -0.065199
-0.113542 0.0658048 -0.0220628
-0.113477 0.0658165 0.0220753
-0.112492 0.0652174 0.0651981
-0.110324 0.063943 0.110435
-0.106115 0.0614534 0.166845
-0.104316 0.104399 -0.163944
-0.1083 0.108402 -0.108389
-0.110333 0.11045 -0.0639173
-0.111187 0.111369 -0.0215865
-0.110699 0.111372 0.0216276
-0.109745 0.110452 0.0639229
-0.107721 0.108404 0.108382
-0.103765 0.1044 0.163938
-0.100223 0.156278 -0.156264
-0.103769 0.163949 -0.104382
-0.10556 0.16685 -0.0614307
-0.106348 0.167878 -0.0206614
-0.106302 0.167873 0.0206754
-0.105485 0.166838 0.0614296
-0.103694 0.163938 0.104381
-0.100159 0.156269 0.156266
-0.0591914 -0.158804 -0.158804
-0.0614396 -0.16685 -0.10621
-0.0625913 -0.169942 -0.0625914
-0.0631307 -0.171039 -0.0210968
-0.0631308 -0.171039 0.0210986
-0.0625909 -0.169942 0.0625842
-0.0614392 -0.16685 0.106213
-0.0591903 -0.158804 0.158801
-0.0614391 -0.10621 -0.16685
-0.0639244 -0.110438 -0.110438
-0.065201 -0.112613 -0.0652014
-0.0657983 -0.113582 -0.0220685
-0.0657978 -0.113582 0.0220714
-0.0652006 -0.112612 0.0651978
-0.0639231 -0.110438 0.110438
-0.0614388 -0.10621 0.166848
-0.0625907 -0.0625906 -0.169942
-0.0652007 -0.0652006 -0.112613
-0.0665431 -0.0665431 -0.0665446
-0.0671769 -0.0671769 -0.0225571
-0.0671755 -0.0671756 0.022562
-0.0665381 -0.0665388 0.066543
-0.0651966 -0.0651971 0.112613
-0.0625882 -0.0625888 0.169939
-0.0631276 -0.0210949 -0.171039
-0.0657945 -0.022066 -0.113583
-0.0671746 -0.0225544 -0.0671775
-0.0678194 -0.022788 -0.0227921
-0.0678128 -0.0227819 0.0227935
-0.0671581 -0.0225459 0.0671786
-0.0657803 -0.022058 0.113585
-0.063114 -0.021086 0.171038
-0.0631174 0.021103 -0.171039
-0.0657828 0.0220788 -0.113582
-0.067155 0.0225735 -0.0671763
-0.0677931 0.0228091 -0.022788
-0.0677503 0.0228343 0.0227968
-0.0670869 0.0226094 0.0671784
-0.0657092 0.0221171 0.113582
-0.0630592 0.0211308 0.171033
-0.0625265 0.0626021 -0.169938
-0.0651226 0.0652193 -0.112609
-0.0664409 0.0665664 -0.0665296
-0.0669866 0.0672211 -0.0225286
-0.0665816 0.0673121 0.0225884
-0.0658659 0.0666866 0.0665427
-0.0645459 0.0653336 0.112599
-0.0620481 0.0627074 0.169923
-0.0609381 0.106271 -0.166837
-0.0633228 0.110504 -0.110421
-0.0645257 0.112688 -0.0651517
-0.0648165 0.113662 -0.0219025
-0.0595871 0.113673 0.0222188
-0.0588087 0.1127 0.0651796
-0.0576991 0.110516 0.110361
-0.055552 0.106279 0.166778
-0.0536533 0.158806 -0.158742
-0.0556021 0.166851 -0.106138
-0.0565741 0.169942 -0.0625294
-0.0569671 0.171026 -0.0210584
-0.0566659 0.170972 0.0210961
-0.0561438 0.169867 0.0625347
-0.0551804 0.166779 0.106132
-0.0532969 0.15874 0.158728
-0.0198243 -0.159705 -0.159706
-0.0206666 -0.167876 -0.107028
-0.0210967 -0.171039 -0.0631308
-0.0212948 -0.172172 -0.021295
-0.0212948 -0.172172 0.021293
-0.0210968 -0.171038 0.0631314
-0.0206661 -0.167876 0.107029
-0.0198242 -0.159705 0.159705
-0.020667 -0.107028 -0.167876
-0.0216076 -0.111356 -0.111357
-0.0220678 -0.113582 -0.065799
-0.0222866 -0.114582 -0.0222886
-0.022285 -0.114581 0.0222942
-0.022066 -0.11358 0.065798
-0.0216055 -0.111354 0.111358
-0.0206651 -0.107026 0.167878
-0.0210957 -0.0631279 -0.171039
-0.0220661 -0.0657945 -0.113583
-0.0225541 -0.0671743 -0.0671775
-0.0227869 -0.0678193 -0.0227922
-0.0227811 -0.0678118 0.0227933
-0.0225467 -0.0671614 0.0671781
-0.0220581 -0.0657815 0.113585
-0.0210866 -0.0631166 0.171037
-0.0212844 -0.0212848 -0.172172
-0.0222753 -0.0222758 -0.114584
-0.0227801 -0.0227805 -0.067824
-0.0229982 -0.0230005 -0.0230234
-0.0229705 -0.0229685 0.0230275
-0.0227254 -0.0227292 0.0678299
-0.0222348 -0.0222305 0.114581
-0.0212466 -0.021243 0.172165
-0.0212559 0.0213157 -0.172169
-0.0222457 0.0223209 -0.114579
-0.0227319 0.0228239 -0.0678199
-0.0229483 0.0230847 -0.0230104
-0.0228281 0.0231842 0.0230366
-0.0225738 0.022962 0.0678308
-0.0220843 0.0224591 0.114575
-0.0211191 0.0214311 0.172158
-0.0209317 0.0631884 -0.171031
-0.0218646 0.0658706 -0.113567
-0.0223204 0.0672645 -0.067139
-0.022443 0.0679518 -0.0227144
-0.0219129 0.0683102 0.0228606
-0.0215474 0.0676836 0.0671864
-0.0211026 0.0662722 0.113545
-0.0203621 0.0635569 0.170982
-0.0195188 0.107241 -0.16783
-0.0202076 0.111599 -0.111292
-0.0205168 0.113837 -0.0655997
-0.0210666 0.11486 -0.0216202
-0.000931958 0.114901 0.0228297
-0.000895538 0.113895 0.0657432
-0.000830352 0.111649 0.111049
-0.000649619 0.107293 0.167576
-0.000842021 0.159706 -0.159432
-0.000987963 0.16787 -0.106722
-0.00102224 0.17102 -0.0628892
-0.000943008 0.172121 -0.0211516
-0.000217724 0.171887 0.0212679
-0.000100665 0.17073 0.0629206
-7.6983e-05 0.167589 0.106708
-4.83032e-05 0.159453 0.159398
0.0198228 -0.159705 -0.159706
0.0206749 -0.167876 -0.107028
0.0210989 -0.171039 -0.063131
0.0212938 -0.172171 -0.0212948
0.0212945 -0.17217 0.0212931
0.0210998 -0.171038 0.0631314
0.0206746 -0.167875 0.107028
0.0198229 -0.159704 0.159705
0.0206751 -0.107026 -0.167876
0.0216118 -0.111354 -0.111356
0.0220735 -0.113579 -0.0657985
0.0222975 -0.114576 -0.0222873
0.022301 -0.11457 0.0222941
0.0220796 -0.113567 0.0657985
0.0216174 -0.111343 0.111357
0.0206788 -0.107018 0.167878
0.0211034 -0.0631175 -0.171039
0.0220791 -0.0657832 -0.113582
0.0225732 -0.0671589 -0.0671771
0.0228075 -0.0677992 -0.0227896
0.0228262 -0.0677592 0.0227957
0.0225984 -0.0671016 0.067178
0.0221077 -0.0657281 0.113583
0.0211235 -0.0630687 0.171035
0.0213162 -0.0212559 -0.172169
0.0223212 -0.0222476 -0.114579
0.0228257 -0.0227315 -0.0678212
0.0230832 -0.022944 -0.0230124
0.0231551 -0.0227952 0.0230362
0.0229368 -0.0225374 0.0678293
0.0224282 -0.0220511 0.114575
0.0214094 -0.0210895 0.172159
0.0213779 0.0213781 -0.172166
0.0223941 0.0223948 -0.114571
0.0229101 0.0229117 -0.0678087
0.0231641 0.0231776 -0.0229922
0.0234596 0.0235283 0.0230497
0.0232447 0.023324 0.067828
0.022718 0.0227885 0.114564
0.0216835 0.021736 0.17215
0.0213902 0.0633095 -0.171016
0.0224252 0.0660098 -0.113533
0.0229551 0.0674201 -0.067078
0.0231401 0.0680721 -0.0226957
0.0217506 0.0689965 0.0228781
0.0215834 0.0683615 0.0672311
0.0210852 0.0669211 0.113537
0.0198932 0.0641601 0.170924
0.0214483 0.107545 -0.167756
0.0226978 0.111927 -0.111149
0.0234888 0.114201 -0.0651147
0.0190901 0.11524 -0.02045
0.060405 0.115328 0.0231781
0.0579571 0.114336 0.0658434
0.0569126 0.112058 0.110575
0.0551298 0.10765 0.166907
0.0523041 0.159693 -0.158837
0.053962 0.167825 -0.106181
0.054871 0.170992 -0.0625001
0.0553219 0.172074 -0.0209797
0.0563233 0.17133 0.0211944
0.0559714 0.170145 0.0626233
0.0550183 0.167032 0.10617
0.0531682 0.158962 0.158745
0.0591906 -0.158803 -0.158803
0.0614356 -0.166849 -0.10621
0.0625846 -0.16994 -0.0625908
0.0631319 -0.171036 -0.0210966
0.0631323 -0.171034 0.0210993
0.0625861 -0.169935 0.0625834
0.0614375 -0.166844 0.106214
0.0591916 -0.158799 0.1588
0.0614391 -0.106198 -0.16685
0.0639282 -0.110421 -0.110437
0.0652018 -0.112591 -0.0651991
0.0658073 -0.113548 -0.0220646
0.0658164 -0.113513 0.0220739
0.0652203 -0.11253 0.0651982
0.0639458 -0.110363 0.110435
0.0614527 -0.106148 0.166845
0.062602 -0.0625265 -0.169939
0.0652193 -0.0651238 -0.112608
0.0665664 -0.0664499 -0.0665338
0.0672161 -0.0670445 -0.022544
0.0672753 -0.0668415 0.0225762
0.0666453 -0.0661768 0.066542
0.0652962 -0.0648478 0.112605
0.062673 -0.0622931 0.16993
0.0631891 -0.020933 -0.17103
0.0658698 -0.0218704 -0.113568
0.0672615 -0.0223348 -0.0671566
0.0679388 -0.02252 -0.0227508
0.0681181 -0.0218975 0.0228264
0.0674891 -0.0216232 0.0671782
0.0660863 -0.0211782 0.11356
0.0633838 -0.0203016 0.171006
0.0633101 0.0213886 -0.171014
0.0660123 0.0224179 -0.113542
0.0674156 0.0229328 -0.0671263
0.0680798 0.0231521 -0.0227089
0.0689783 0.0243722 0.0228471
0.0683236 0.0241416 0.0671753
0.0668915 0.0235901 0.113533
0.0641675 0.0224963 0.170993
0.0631474 0.0631411 -0.16988
0.0658319 0.0658153 -0.112464
0.0672483 0.0672351 -0.0663606
0.0679531 0.0676272 -0.0225789
0.0624413 0.069969 0.0226127
0.0619983 0.0691828 0.0666357
0.0606808 0.0677297 0.112615
0.0580275 0.0649897 0.169803
0.0612095 0.107467 -0.166615
0.0640213 0.111781 -0.109742
0.0663137 0.114025 -0.0627824
0.0534355 0.115135 -0.0168395
0.118594 0.113778 0.0207949
0.110596 0.112925 0.0653624
0.108629 0.110678 0.109155
0.105165 0.106294 0.164273
0.0992585 0.158523 -0.156518
0.102454 0.166512 -0.104445
0.104196 0.169579 -0.0613199
0.104833 0.170851 -0.0205651
0.106068 0.16901 0.0208791
0.105388 0.167948 0.0616714
0.103576 0.164972 0.104525
0.100088 0.157152 0.156324
0.1008 -0.156268 -0.156271
0.104391 -0.163943 -0.104391
0.106214 -0.166845 -0.0614384
0.107031 -0.167865 -0.0206647
0.107033 -0.167852 0.0206751
0.106218 -0.166822 0.0614361
0.104395 -0.16392 0.10439
0.100804 -0.156249 0.156274
0.104399 -0.104316 -0.163944
0.108403 -0.108298 -0.108388
0.110452 -0.110329 -0.0639148
0.111381 -0.111181 -0.0215869
0.111418 -0.110895 0.0216255
0.110505 -0.109922 0.063925
0.108454 -0.107894 0.108383
0.104446 -0.103967 0.163934
0.106271 -0.0609371 -0.166836
0.110506 -0.0633214 -0.110418
0.112693 -0.0645351 -0.0651601
0.113696 -0.0649804 -0.0219932
0.113883 -0.0636355 0.022141
0.11293 -0.0628733 0.0651999
0.110736 -0.0616734 0.110397
0.106472 -0.0595111 0.16679
0.107243 -0.0195175 -0.167829
0.111604 -0.0202111 -0.11129
0.113848 -0.0205816 -0.0656879
0.11489 -0.0208785 -0.022124
0.115347 -0.018627 0.0224249
0.114378 -0.0183189 0.0658133
0.112097 -0.0179566 0.111267
0.107695 -0.0175387 0.167722
0.107547 0.021449 -0.167749
0.111941 0.0226634 -0.111205
0.114221 0.0232435 -0.0655761
0.115076 0.0230467 -0.0220415
0.117835 0.0268551 0.0224865
0.116715 0.0266053 0.0658302
0.11433 0.0260078 0.111207
0.109846 0.0246525 0.167534
0.107481 0.0612003 -0.16657
0.111846 0.0639187 -0.109908
0.11414 0.0654152 -0.0649387
0.116273 0.0654718 -0.0221215
0.106271 0.0736258 0.0224262
0.106429 0.073208 0.0652399
0.1042 0.0716682 0.110421
0.100263 0.0687174 0.166886
0.104736 0.104665 -0.163113
0.10919 0.108797 -0.104769
0.114095 0.111033 -0.0543597
0.0894002 0.113344 -0.003554
0.164786 0.103113 0.0111498
0.158002 0.109099 0.0598889
0.155766 0.106626 0.107704
0.150063 0.102407 0.157725
0.146384 0.15727 -0.150418
0.152135 0.165091 -0.100749
0.154939 0.167509 -0.0592854
0.155679 0.169265 -0.01968
0.157914 0.165342 0.0203099
0.158963 0.163531 0.0599511
0.156267 0.160944 0.101473
0.14975 0.15369 0.14992
0.149745 -0.149731 -0.149744
0.156276 -0.156256 -0.100802
0.158801 -0.158783 -0.0591881
0.159705 -0.159667 -0.0198167
0.159707 -0.159564 0.019828
0.158804 -0.158651 0.0591902
0.156278 -0.156124 0.100798
0.149747 -0.149605 0.149743
0.156278 -0.100223 -0.156264
0.163949 -0.103764 -0.104377
0.16685 -0.10553 -0.061402
0.167882 -0.106111 -0.0205478
0.167897 -0.103021 0.0207795
0.166866 -0.102084 0.0614265
0.163962 -0.100385 0.104343
0.15629 -0.0969911 0.156228
0.158806 -0.053651 -0.15874
0.166851 -0.0555746 -0.106112
0.169944 -0.0564594 -0.0623594
0.171038 -0.0571314 -0.0204685
0.171052 -0.0387306 0.0215797
0.169952 -0.0383955 0.0625352
0.166859 -0.0377542 0.105914
0.158821 -0.0364283 0.158494
0.159707 -0.000830078 -0.159423
0.16787 -0.000897204 -0.106591
0.171026 -0.000622589 -0.0622567
0.17217 -0.00535034 -0.0193423
0.172153 0.0376468 0.0220357