# vtk DataFile Version 3.0
Molecular Dynamics Particle Data
ASCII
DATASET POLYDATA
POINTS 500 float
0.390234 0.390234 0.390234
0.385358 0.385358 0.53756
0.383786 0.383786 0.666567
0.383267 0.383267 0.789253
0.383267 0.383267 0.910746
0.383786 0.383786 1.03343
0.385358 0.385358 1.16244
0.390234 0.390234 1.30977
0.385358 0.53756 0.385358
0.379647 0.535203 0.535203
0.377839 0.534138 0.665304
0.377249 0.533688 0.788842
0.377249 0.533689 0.911161
0.377839 0.534138 1.0347
0.379647 0.535203 1.1648
0.385358 0.53756 1.31464
0.383786 0.666567 0.383786
0.377839 0.665304 0.534138
0.375921 0.664691 0.664691
0.375292 0.664413 0.788636
0.375292 0.664413 0.911363
0.375922 0.664691 1.03531
0.377839 0.665304 1.16586
0.383786 0.666567 1.31621
0.383267 0.789253 0.383267
0.377249 0.788842 0.533689
0.375292 0.788636 0.664413
0.374641 0.788542 0.788541
0.374641 0.788542 0.911457
0.375292 0.788636 1.03559
0.37725 0.788842 1.16631
0.383267 0.789253 1.31673
0.383267 0.910746 0.383267
0.377249 0.911161 0.533689
0.375292 0.911364 0.664413
0.374642 0.911457 0.788541
0.374643 0.911458 0.911457
0.375292 0.911364 1.03559
0.37725 0.911161 1.16631
0.383268 0.910746 1.31673
0.383786 1.03343 0.383786
0.37784 1.0347 0.534138
0.375924 1.03531 0.664692
0.375293 1.03559 0.788636
0.375296 1.03559 0.911364
0.375928 1.03531 1.03531
0.377845 1.0347 1.16586
0.38379 1.03343 1.31621
0.385361 1.16244 0.385358
0.379651 1.1648 0.535204
0.377845 1.16586 0.665305
0.377256 1.16631 0.788843
0.377271 1.16631 0.911162
0.377863 1.16586 1.0347
0.379669 1.1648 1.1648
0.385379 1.16244 1.31464
0.390254 1.30977 0.390234
0.385379 1.31464 0.53756
0.383809 1.31621 0.666567
0.383292 1.31673 0.789253
0.383294 1.31673 0.910746
0.383812 1.31621 1.03343
0.385384 1.31464 1.16244
0.390258 1.30977 1.30977
0.53756 0.385358 0.385358
0.535203 0.379647 0.535203
0.534138 0.377839 0.665304
0.533689 0.377249 0.788842
0.533689 0.377249 0.911161
0.534138 0.377839 1.0347
0.535203 0.379647 1.1648
0.53756 0.385358 1.31464
0.535203 0.535203 0.379647
0.532564 0.532564 0.532564
0.53136 0.53136 0.6639
0.530856 0.530856 0.788381
0.530856 0.530856 0.91162
0.53136 0.53136 1.0361
0.532564 0.532564 1.16744
0.535203 0.535203 1.32035
0.534139 0.665304 0.377839
0.53136 0.6639 0.53136
0.530087 0.663216 0.663216
0.529554 0.662909 0.788155
0.529554 0.662909 0.911845
0.530088 0.663217 1.03678
0.531361 0.6639 1.16864
0.534139 0.665305 1.32216
0.533689 0.788842 0.377249
0.530856 0.788382 0.530855
0.529554 0.788156 0.662908
0.529006 0.788053 0.788052
0.529008 0.788054 0.91195
0.529557 0.788158 1.03709
0.530858 0.788383 1.16914
0.533691 0.788843 1.32275
0.53369 0.911162 0.377249
0.530858 0.911621 0.530856
0.529557 0.911847 0.662909
0.529012 0.911953 0.788053
0.529019 0.911957 0.91195
0.529568 0.911852 1.03709
0.530869 0.911627 1.16914
0.5337 0.911166 1.32275
0.534148 1.0347 0.37784
0.531373 1.0361 0.531361
0.530104 1.03679 0.663218
0.529584 1.0371 0.78816
0.529639 1.03711 0.911849
0.530183 1.0368 1.03678
0.531452 1.03612 1.16864
0.534215 1.03471 1.32216
0.53527 1.16481 0.379649
0.532642 1.16745 0.532565
0.53145 1.16865 0.663906
0.530991 1.16916 0.788402
0.531512 1.16916 0.911638
0.532042 1.16865 1.0361
0.533226 1.16745 1.16743
0.535843 1.16481 1.32035
0.538172 1.31465 0.385364
0.535838 1.32036 0.535211
0.534796 1.32216 0.665312
0.534369 1.32276 0.788847
0.534408 1.32275 0.911162
0.534855 1.32215 1.03469
0.535898 1.32035 1.16479
0.538223 1.31464 1.31464
0.666567 0.383786 0.383786
0.665304 0.377839 0.534138
0.664691 0.375921 0.664691
0.664413 0.375292 0.788636
0.664413 0.375292 0.911363
0.664691 0.375921 1.03531
0.665304 0.377839 1.16586
0.666567 0.383786 1.31621
0.665304 0.534139 0.377839
0.6639 0.53136 0.53136
0.663216 0.530087 0.663216
0.662909 0.529554 0.788155
0.662909 0.529554 0.911845
0.663217 0.530088 1.03678
0.663901 0.531361 1.16864
0.665305 0.534139 1.32216
0.664692 0.664692 0.375921
0.663217 0.663217 0.530087
0.662498 0.662497 0.662496
0.662172 0.662172 0.787919
0.662173 0.662173 0.912083
0.6625 0.6625 1.0375
0.663219 0.663219 1.16991
0.664693 0.664693 1.32408
0.664416 0.788637 0.375292
0.662911 0.788157 0.529554
0.662174 0.787922 0.662171
0.661844 0.787811 0.787808
0.661849 0.787817 0.912192
0.662186 0.78793 1.03783
0.662921 0.788165 1.17045
0.664424 0.788644 1.32471
0.664422 0.911367 0.375292
0.662919 0.91185 0.529554
0.662186 0.91209 0.662172
0.661859 0.912203 0.78781
0.661886 0.912223 0.912194
0.662226 0.912117 1.03783
0.662961 0.911877 1.17044
0.664456 0.911389 1.3247
0.664732 1.03532 0.375924
0.663267 1.0368 0.53009
0.66256 1.03752 0.662506
0.662275 1.03786 0.787937
0.662472 1.03793 0.912099
0.662839 1.03761 1.03751
0.663544 1.03688 1.16991
0.66495 1.0354 1.32407
0.665611 1.16591 0.37785
0.664269 1.16869 0.531373
0.663627 1.16997 0.663253
0.663345 1.1705 0.788278
0.667215 1.17051 0.911949
0.667544 1.16998 1.03678
0.668139 1.1687 1.16859
0.669392 1.16592 1.32211
0.67045 1.31622 0.383832
0.669329 1.32216 0.534191
0.668808 1.32408 0.664733
0.668607 1.3247 0.788661
0.668789 1.32466 0.911362
0.669053 1.32403 1.03527
0.669571 1.32211 1.16581
0.670656 1.31617 1.31616
0.789253 0.383267 0.383267
0.788842 0.377249 0.533688
0.788636 0.375292 0.664413
0.788542 0.374641 0.788541
0.788542 0.374641 0.911457
0.788636 0.375292 1.03559
0.788842 0.377249 1.16631
0.789253 0.383267 1.31673
0.788842 0.533689 0.377249
0.788382 0.530856 0.530855
0.788156 0.529554 0.662908
0.788054 0.529006 0.788052
0.788054 0.529007 0.91195
0.788158 0.529556 1.03709
0.788383 0.530858 1.16915
0.788843 0.53369 1.32275
0.788637 0.664415 0.375292
0.788157 0.662911 0.529554
0.787922 0.662174 0.662171
0.787811 0.661844 0.787808
0.787816 0.66185 0.912192
0.787928 0.662184 1.03783
0.788164 0.662921 1.17045
0.788644 0.664423 1.32471
0.788548 0.788548 0.374641
0.788061 0.78806 0.529005
0.787816 0.787816 0.661839
0.787714 0.787713 0.787699
0.787732 0.787736 0.912305
0.78785 0.78785 1.03816
0.788088 0.788093 1.17099
0.788574 0.788576 1.32535
0.788565 0.911472 0.374643
0.78808 0.911969 0.529008
0.787844 0.912212 0.661842
0.787739 0.912338 0.787705
0.787819 0.912405 0.91231
0.787939 0.912298 1.03816
0.788176 0.912052 1.17099
0.788652 0.911546 1.32535
0.788729 1.03562 0.375296
0.78827 1.03714 0.529565
0.788051 1.03788 0.662194
0.787978 1.03823 0.787843
0.787982 1.03846 0.912225
0.788151 1.03813 1.03784
0.788368 1.03738 1.17043
0.78872 1.03585 1.32468
0.789355 1.16644 0.377277
0.789031 1.16929 0.5309
0.788908 1.1706 0.663042
0.787969 1.17116 0.788473
0.799906 1.17117 0.912226
0.799634 1.17062 1.03708
0.799666 1.16931 1.16896
0.799774 1.16646 1.32256
0.799573 1.31673 0.38344
0.79949 1.32275 0.533878
0.799471 1.32469 0.664554
0.799504 1.32533 0.788618
0.799888 1.32518 0.911445
0.799939 1.32452 1.03547
0.79995 1.32258 1.16612
0.799965 1.31658 1.31654
0.910746 0.383267 0.383267
0.911161 0.377249 0.533689
0.911364 0.375292 0.664413
0.911458 0.374642 0.788542
0.911458 0.374642 0.911457
0.911364 0.375292 1.03559
0.911161 0.37725 1.16631
0.910746 0.383268 1.31673
0.911162 0.53369 0.377249
0.911621 0.530857 0.530856
0.911847 0.529557 0.662909
0.911953 0.52901 0.788053
0.911956 0.529017 0.91195
0.911851 0.529566 1.03709
0.911626 0.530867 1.16914
0.911165 0.533697 1.32275
0.911367 0.664422 0.375292
0.911851 0.662918 0.529554
0.91209 0.662184 0.662172
0.912202 0.661857 0.78781
0.912215 0.661888 0.912193
0.912109 0.662227 1.03783
0.91187 0.662959 1.17044
0.911383 0.664457 1.32471
0.911472 0.788565 0.374643
0.911969 0.788079 0.529007
0.912212 0.787843 0.661842
0.912338 0.787742 0.787705
0.912385 0.787837 0.91231
0.912282 0.78796 1.03816
0.912032 0.788194 1.17099
0.911529 0.788667 1.32535
0.911509 0.911509 0.374645
0.91201 0.91201 0.529014
0.912264 0.912265 0.66185
0.912385 0.912386 0.787716
0.912612 0.912601 0.912318
0.912508 0.912501 1.03816
0.91225 0.912239 1.17098
0.911739 0.911718 1.32534
0.911545 1.0357 0.375306
0.91206 1.03722 0.529584
0.912326 1.03798 0.66222
0.912478 1.03829 0.787847
0.911448 1.03889 0.912236
0.911433 1.03855 1.03786
0.911185 1.03778 1.17043
0.910562 1.03622 1.32465
0.911605 1.16661 0.37732
0.912259 1.16947 0.530994
0.912764 1.1708 0.663337
0.909554 1.17137 0.789202
0.933642 1.17135 0.9123
0.931989 1.17081 1.03712
0.931456 1.16948 1.16872
0.93044 1.1666 1.32218
0.928742 1.31672 0.383778
0.929682 1.32271 0.534168
0.930167 1.32467 0.664749
0.930395 1.32531 0.788704
0.931001 1.32487 0.911418
0.930839 1.3242 1.03532
0.930333 1.32227 1.16583
0.929269 1.31631 1.31617
1.03343 0.383786 0.383786
1.0347 0.37784 0.534139
1.03531 0.375923 0.664692
1.03559 0.375294 0.788636
1.03559 0.375295 0.911364
1.03531 0.375927 1.03531
1.0347 0.377845 1.16586
1.03343 0.38379 1.31621
1.0347 0.534148 0.37784
1.0361 0.531373 0.531361
1.03679 0.530103 0.663218
1.0371 0.529578 0.788158
1.03711 0.529606 0.911847
1.0368 0.530146 1.03678
1.03612 0.531417 1.16864
1.03471 0.534185 1.32216
1.03532 0.664731 0.375924
1.0368 0.663266 0.53009
1.03752 0.662555 0.662503
1.03785 0.662248 0.787929
1.03789 0.662391 0.912092
1.03757 0.662732 1.0375
1.03685 0.663442 1.16991
1.03536 0.664886 1.32407
1.03562 0.788728 0.375296
1.03714 0.788267 0.529564
1.03788 0.788043 0.662184
1.03823 0.787949 0.787832
1.03834 0.78833 0.912212
1.03801 0.788454 1.03783
1.03726 0.788669 1.17043
1.03574 0.789098 1.32469
1.0357 0.911544 0.375307
1.03722 0.912055 0.529577
1.03797 0.912313 0.662204
1.0383 0.912401 0.787861
1.03894 0.913147 0.912231
1.0386 0.913026 1.03783
1.03783 0.91275 1.17041
1.03629 0.9122 1.32468
1.03567 1.03566 0.375963
1.03719 1.03718 0.530173
1.03796 1.03795 0.662582
1.03851 1.03815 0.787926
1.03552 1.03966 0.912137
1.03547 1.03922 1.03755
1.03475 1.03843 1.16991
1.03319 1.03686 1.32398
1.03499 1.16667 0.377999
1.03665 1.16951 0.531841
1.03807 1.17082 0.664731
1.03076 1.17144 0.791307
1.07206 1.17054 0.911353
1.06784 1.17012 1.03669
1.06679 1.1688 1.16789
1.06451 1.16591 1.32057
1.06096 1.31603 0.385197
1.06304 1.32195 0.53517
1.06406 1.32385 0.665363
1.06444 1.32459 0.788934
1.06535 1.32344 0.9113
1.06505 1.32283 1.03482
1.06401 1.32098 1.16488
1.06171 1.31518 1.31468
1.16244 0.385361 0.385358
1.1648 0.379651 0.535204
1.16586 0.377845 0.665305
1.16631 0.377258 0.788843
1.16631 0.37727 0.911162
1.16587 0.377864 1.0347
1.1648 0.37967 1.1648
1.16244 0.385379 1.31464
1.16481 0.53527 0.379649
1.16745 0.532643 0.532566
1.16865 0.531451 0.663906
1.16916 0.530984 0.788395
1.16919 0.531196 0.911631
1.16869 0.531733 1.0361
1.16748 0.532923 1.16743
1.16484 0.535514 1.32034
1.16591 0.665611 0.37785
1.16869 0.66427 0.531373
1.16997 0.663618 0.663241
1.17052 0.663356 0.788201
1.17064 0.664137 0.911885
1.17011 0.664514 1.03679
1.16883 0.665158 1.16862
1.16603 0.666381 1.32212
1.16644 0.789356 0.377278
1.16929 0.789026 0.530895
1.1706 0.788855 0.662971
1.17117 0.788689 0.788146
1.17145 0.790098 0.91203
1.17091 0.790247 1.03711
1.16958 0.790417 1.16909
1.16671 0.7906 1.32266
1.16661 0.911604 0.377323
1.16948 0.912235 0.530942
1.17082 0.912547 0.663036
1.17124 0.912469 0.788224
1.17304 0.915079 0.912088
1.17239 0.915013 1.03712
1.171 0.914703 1.16905
1.16808 0.913927 1.32252
1.16668 1.03498 0.378023
1.16955 1.03659 0.531654
1.17089 1.03743 0.663382
1.17227 1.03753 0.788236
1.16646 1.04203 0.912133
1.1668 1.04201 1.0369
1.16547 1.04117 1.16857
1.16279 1.03937 1.32206
1.1654 1.16536 0.380288
1.1684 1.16816 0.53493
1.17148 1.16949 0.669946
1.15765 1.17084 0.798104
1.21808 1.16529 0.907144
1.21544 1.16931 1.03398
1.21406 1.16782 1.16647
1.20955 1.16499 1.31573
1.207 1.31545 0.389688
1.21132 1.32124 0.53749
1.21313 1.32267 0.666565
1.2136 1.32359 0.789485
1.21531 1.32053 0.911238
1.2163 1.31923 1.03392
1.21463 1.31761 1.16282
1.20976 1.31227 1.30989
1.30977 0.390254 0.390234
1.31464 0.385379 0.537561
1.31621 0.383811 0.666569
1.31673 0.383307 0.78926
1.31673 0.383414 0.910751
1.31622 0.383941 1.03343
1.31465 0.385507 1.16244
1.30977 0.390381 1.30976
1.31465 0.538173 0.385364
1.32036 0.535842 0.535215
1.32216 0.534814 0.665335
1.32276 0.534435 0.788927
1.32277 0.536756 0.911235
1.32218 0.537227 1.03469
1.32037 0.538217 1.16476
1.31466 0.540481 1.31461
1.31622 0.670453 0.383834
1.32216 0.669348 0.534214
1.32408 0.668891 0.664848
1.32471 0.667996 0.789031
1.32471 0.678847 0.911603
1.32408 0.678742 1.03529
1.32216 0.6791 1.16568
1.31622 0.679919 1.31601
1.31673 0.799581 0.383448
1.32275 0.799547 0.533977
1.3247 0.799787 0.664967
1.32536 0.796465 0.789786
1.32532 0.821142 0.911679
1.32469 0.819444 1.03554
1.32272 0.819187 1.16579
1.31672 0.818687 1.31607
1.31672 0.928762 0.383816
1.32272 0.929819 0.534571
1.32468 0.931077 0.66619
1.32536 0.923738 0.791753
1.32494 0.964349 0.910807
1.32434 0.960313 1.03525
1.32238 0.959525 1.16526
1.31639 0.957681 1.31491
1.31604 1.06102 0.38547
1.32198 1.0634 0.537018
1.32386 1.06643 0.670334
1.32431 1.05437 0.796873
1.33356 1.10294 0.909631
1.33277 1.10611 1.03363
1.33047 1.10475 1.16424
1.32372 1.10099 1.31089
1.31555 1.20701 0.392563
1.32151 1.21121 0.562374
1.32295 1.21208 0.732104
1.33548 1.23098 0.885588
VERTICES 500 1000
1 0
1 1
1 2
1 3
1 4
1 5
1 6
1 7
1 8
1 9
1 10
1 11
1 12
1 13
1 14
1 15
1 16
1 17
1 18
1 19
1 20
1 21
1 22
1 23
1 24
1 25
1 26
1 27
1 28
1 29
1 30
1 31
1 32
1 33
1 34
1 35
1 36
1 37
1 38
1 39
1 40
1 41
1 42
1 43
1 44
1 45
1 46
1 47
1 48
1 49
1 50
1 51
1 52
1 53
1 54
1 55
1 56
1 57
1 58
1 59
1 60
1 61
1 62
1 63
1 64
1 65
1 66
1 67
1 68
1 69
1 70
1 71
1 72
1 73
1 74
1 75
1 76
1 77
1 78
1 79
1 80
1 81
1 82
1 83
1 84
1 85
1 86
1 87
1 88
1 89
1 90
1 91
1 92
1 93
1 94
1 95
1 96
1 97
1 98
1 99
1 100
1 101
1 102
1 103
1 104
1 105
1 106
1 107
1 108
1 109
1 110
1 111
1 112
1 113
1 114
1 115
1 116
1 117
1 118
1 119
1 120
1 121
1 122
1 123
1 124
1 125
1 126
1 127
1 128
1 129
1 130
1 131
1 132
1 133
1 134
1 135
1 136
1 137
1 138
1 139
1 140
1 141
1 142
1 143
1 144
1 145
1 146
1 147
1 148
1 149
1 150
1 151
1 152
1 153
1 154
1 155
1 156
1 157
1 158
1 159
1 160
1 161
1 162
1 163
1 164
1 165
1 166
1 167
1 168
1 169
1 170
1 171
1 172
1 173
1 174
1 175
1 176
1 177
1 178
1 179
1 180
1 181
1 182
1 183
1 184
1 185
1 186
1 187
1 188
1 189
1 190
1 191
1 192
1 193
1 194
1 195
1 196
1 197
1 198
1 199
1 200
1 201
1 202
1 203
1 204
1 205
1 206
1 207
1 208
1 209
1 210
1 211
1 212
1 213
1 214
1 215
1 216
1 217
1 218
1 219
1 220
1 221
1 222
1 223
1 224
1 225
1 226
1 227
1 228
1 229
1 230
1 231
1 232
1 233
1 234
1 235
1 236
1 237
1 238
1 239
1 240
1 241
1 242
1 243
1 244
1 245
1 246
1 247
1 248
1 249
1 250
1 251
1 252
1 253
1 254
1 255
1 256
1 257
1 258
1 259
1 260
1 261
1 262
1 263
1 264
1 265
1 266
1 267
1 268
1 269
1 270
1 271
1 272
1 273
1 274
1 275
1 276
1 277
1 278
1 279
1 280
1 281
1 282
1 283
1 284
1 285
1 286
1 287
1 288
1 289
1 290
1 291
1 292
1 293
1 294
1 295
1 296
1 297
1 298
1 299
1 300
1 301
1 302
1 303
1 304
1 305
1 306
1 307
1 308
1 309
1 310
1 311
1 312
1 313
1 314
1 315
1 316
1 317
1 318
1 319
1 320
1 321
1 322
1 323
1 324
1 325
1 326
1 327
1 328
1 329
1 330
1 331
1 332
1 333
1 334
1 335
1 336
1 337
1 338
1 339
1 340
1 341
1 342
1 343
1 344
1 345
1 346
1 347
1 348
1 349
1 350
1 351
1 352
1 353
1 354
1 355
1 356
1 357
1 358
1 359
1 360
1 361
1 362
1 363
1 364
1 365
1 366
1 367
1 368
1 369
1 370
1 371
1 372
1 373
1 374
1 375
1 376
1 377
1 378
1 379
1 380
1 381
1 382
1 383
1 384
1 385
1 386
1 387
1 388
1 389
1 390
1 391
1 392
1 393
1 394
1 395
1 396
1 397
1 398
1 399
1 400
1 401
1 402
1 403
1 404
1 405
1 406
1 407
1 408
1 409
1 410
1 411
1 412
1 413
1 414
1 415
1 416
1 417
1 418
1 419
1 420
1 421
1 422
1 423
1 424
1 425
1 426
1 427
1 428
1 429
1 430
1 431
1 432
1 433
1 434
1 435
1 436
1 437
1 438
1 439
1 440
1 441
1 442
1 443
1 444
1 445
1 446
1 447
1 448
1 449
1 450
1 451
1 452
1 453
1 454
1 455
1 456
1 457
1 458
1 459
1 460
1 461
1 462
1 463
1 464
1 465
1 466
1 467
1 468
1 469
1 470
1 471
1 472
1 473
1 474
1 475
1 476
1 477
1 478
1 479
1 480
1 481
1 482
1 483
1 484
1 485
1 486
1 487
1 488
1 489
1 490
1 491
1 492
1 493
1 494
1 495
1 496
1 497
1 498
1 499
POINT_DATA 500
VECTORS velocity float
-0.161422 -0.161422 -0.161422
-0.167887 -0.167886 -0.123929
-0.170984 -0.170984 -0.0831146
-0.172213 -0.172213 -0.0297183
-0.172213 -0.172213 0.0297193
-0.170984 -0.170984 0.0831098
-0.167887 -0.167886 0.123927
-0.161422 -0.161422 0.161423
-0.167886 -0.123929 -0.167886
-0.175513 -0.127507 -0.127507
-0.179045 -0.129631 -0.0852289
-0.180421 -0.130687 -0.0304148
-0.180421 -0.130687 0.0304161
-0.179046 -0.129631 0.0852331
-0.175513 -0.127507 0.127505
-0.167886 -0.12393 0.167891
-0.170984 -0.0831146 -0.170984
-0.179045 -0.0852285 -0.129632
-0.182814 -0.0864903 -0.0864908
-0.184279 -0.087133 -0.0308272
-0.18428 -0.087133 0.0308284
-0.182813 -0.0864903 0.0864864
-0.179046 -0.085228 0.129632
-0.170983 -0.0831139 0.170981
-0.172213 -0.029718 -0.172213
-0.180421 -0.0304143 -0.130687
-0.184279 -0.030827 -0.0871331
-0.185796 -0.0310413 -0.031042
-0.185796 -0.0310403 0.0310405
-0.184277 -0.0308263 0.0871314
-0.180419 -0.0304142 0.130688
-0.172212 -0.0297173 0.172212
-0.172212 0.0297199 -0.172213
-0.18042 0.0304157 -0.130687
-0.184279 0.0308289 -0.0871327
-0.185793 0.0310417 -0.0310417
-0.18579 0.0310432 0.0310407
-0.184274 0.0308317 0.0871313
-0.180415 0.0304189 0.130688
-0.172207 0.0297222 0.172212
-0.17098 0.0831111 -0.170983
-0.17904 0.0852354 -0.129631
-0.182805 0.0864891 -0.0864892
-0.184268 0.0871346 -0.0308258
-0.184251 0.0871377 0.0308304
-0.182779 0.0864942 0.0864867
-0.179014 0.085241 0.129631
-0.170956 0.0831162 0.17098
-0.167865 0.123931 -0.167885
-0.17549 0.12751 -0.127506
-0.179017 0.129637 -0.0852255
-0.180375 0.130694 -0.0304083
-0.180277 0.130695 0.0304222
-0.17889 0.129638 0.085232
-0.175367 0.127511 0.127503
-0.167736 0.123932 0.16789
-0.161269 0.161427 -0.161421
-0.167735 0.167895 -0.123927
-0.170824 0.170986 -0.0831122
-0.172042 0.172215 -0.0297157
-0.172028 0.172212 0.0297207
-0.170802 0.170981 0.0831077
-0.167713 0.167891 0.123925
-0.161248 0.161423 0.161421
-0.123929 -0.167886 -0.167886
-0.127506 -0.175513 -0.127507
-0.129631 -0.179045 -0.0852289
-0.130687 -0.180421 -0.0304147
-0.130687 -0.180421 0.0304161
-0.129631 -0.179045 0.0852331
-0.127507 -0.175513 0.127505
-0.123929 -0.167886 0.167891
-0.127507 -0.127507 -0.175513
-0.131445 -0.131445 -0.131446
-0.133813 -0.133813 -0.0875355
-0.134982 -0.134982 -0.0311788
-0.134982 -0.134982 0.0311794
-0.133813 -0.133813 0.0875392
-0.131445 -0.131445 0.131444
-0.127506 -0.127506 0.175514
-0.129631 -0.0852282 -0.179045
-0.133813 -0.0875347 -0.133813
-0.136323 -0.0889142 -0.0889149
-0.137555 -0.0896181 -0.0316286
-0.137554 -0.0896168 0.031629
-0.13632 -0.0889121 0.0889131
-0.133811 -0.087532 0.133813
-0.129629 -0.0852256 0.179042
-0.130684 -0.0304135 -0.180421
-0.13498 -0.0311765 -0.134983
-0.137553 -0.0316259 -0.0896195
-0.138816 -0.0318493 -0.031854
-0.13881 -0.0318435 0.0318547
-0.137541 -0.0316164 0.0896263
-0.13497 -0.0311669 0.134983
-0.130676 -0.0304078 0.180423
-0.130678 0.0304202 -0.18042
-0.134972 0.031184 -0.134981
-0.13754 0.031636 -0.0896175
-0.138796 0.0318681 -0.0318511
-0.138766 0.0318891 0.0318577
-0.137493 0.03166 0.0896262
-0.134923 0.031209 0.134982
-0.130639 0.0304444 0.180423
-0.129586 0.0852478 -0.179044
-0.133754 0.0875566 -0.13381
-0.13625 0.0889326 -0.0889064
-0.137424 0.0896565 -0.0316071
-0.137163 0.0897216 0.031648
-0.135881 0.0890213 0.088915
-0.133388 0.0876414 0.133803
-0.129272 0.0853257 0.179029
-0.127163 0.127554 -0.175504
-0.131044 0.131499 -0.131433
-0.133369 0.133871 -0.0875037
-0.134373 0.135045 -0.0310627
-0.131306 0.135072 0.0312764
-0.130044 0.133896 0.0875394
-0.127747 0.131524 0.131408
-0.123853 0.127577 0.175488
-0.120365 0.167922 -0.16786
-0.123886 0.175547 -0.127467
-0.125923 0.179076 -0.0851947
-0.12688 0.18045 -0.0303928
-0.126683 0.180411 0.0304208
-0.125642 0.179015 0.0852088
-0.123609 0.175491 0.127463
-0.120121 0.16787 0.167858
-0.0831144 -0.170984 -0.170984
-0.0852287 -0.179045 -0.129632
-0.0864905 -0.182814 -0.0864908
-0.087133 -0.184279 -0.0308272
-0.0871331 -0.184279 0.0308284
-0.0864901 -0.182814 0.0864865
-0.0852278 -0.179045 0.129632
-0.083114 -0.170984 0.170981
-0.0852283 -0.129631 -0.179045
-0.0875347 -0.133813 -0.133813
-0.0889142 -0.136323 -0.0889149
-0.0896175 -0.137555 -0.0316286
-0.0896165 -0.137554 0.0316289
-0.0889121 -0.136321 0.0889127
-0.0875321 -0.13381 0.133812
-0.0852256 -0.129629 0.179041
-0.0864888 -0.0864884 -0.182814
-0.0889121 -0.0889122 -0.136325
-0.0903641 -0.0903642 -0.090367
-0.0911023 -0.0911028 -0.0320904
-0.0910953 -0.0910948 0.0320964
-0.0903525 -0.0903514 0.0903689
-0.0889022 -0.0889018 0.136324
-0.0864802 -0.0864796 0.182811
-0.0871223 -0.0308218 -0.184279
-0.0896067 -0.0316188 -0.137555
-0.0910964 -0.0320791 -0.0911054
-0.0918373 -0.0323201 -0.0323351
-0.091813 -0.0322937 0.0323379
-0.0910457 -0.0320435 0.0911112
-0.089568 -0.0315784 0.137554
-0.0870857 -0.0307867 0.184279
-0.0870966 0.0308472 -0.184279
-0.0895787 0.0316494 -0.137553
-0.0910531 0.0321244 -0.091102
-0.0917995 0.0323816 -0.0323276
-0.0916991 0.0324726 0.032344
-0.0909285 0.0322413 0.0911109
-0.0894508 0.0317604 0.137549
-0.0869848 0.0309461 0.184269
-0.0863416 0.0865448 -0.182804
-0.0887382 0.0889811 -0.13631
-0.0901608 0.0904466 -0.0903347
-0.0908293 0.0912088 -0.0320296
-0.0904654 0.091522 0.0321523
-0.0896211 0.0908073 0.0903783
-0.0882146 0.0893316 0.136296
-0.0860303 0.0868689 0.182766
-0.0842111 0.129819 -0.179005
-0.0862942 0.134018 -0.133754
-0.0875386 0.136549 -0.0887522
-0.0890655 0.137789 -0.0310995
-0.072185 0.137853 0.0320603
-0.0718509 0.136617 0.0889169
-0.0707136 0.134085 0.133594
-0.0686843 0.12988 0.178816
-0.0672382 0.171011 -0.170773
-0.0690719 0.179062 -0.129402
-0.0700828 0.182833 -0.0863202
-0.0705282 0.184272 -0.0307365
-0.0699107 0.184076 0.0308229
-0.0693258 0.182589 0.0863547
-0.0683279 0.17883 0.129384
-0.066607 0.170788 0.170742
-0.0297181 -0.172213 -0.172213
-0.0304144 -0.180421 -0.130687
-0.0308272 -0.184279 -0.0871331
-0.031041 -0.185797 -0.0310422
-0.0310397 -0.185796 0.0310405
-0.0308263 -0.184278 0.0871314
-0.030414 -0.18042 0.130688
-0.0297173 -0.172212 0.172212
-0.0304135 -0.130685 -0.180421
-0.0311766 -0.13498 -0.134983
-0.0316261 -0.137553 -0.0896195
-0.0318497 -0.138816 -0.0318535
-0.0318436 -0.13881 0.0318549
-0.031617 -0.137544 0.089626
-0.031167 -0.13497 0.134983
-0.0304091 -0.130677 0.180424
-0.0308222 -0.0871227 -0.184279
-0.0316189 -0.0896067 -0.137555
-0.0320796 -0.0910956 -0.0911054
-0.0323218 -0.0918382 -0.0323355
-0.0323025 -0.0918084 0.0323375
-0.0320557 -0.0910471 0.0911108
-0.0315876 -0.0895632 0.137554
-0.0307944 -0.0870831 0.184278
-0.0310208 -0.0310212 -0.185796
-0.0318232 -0.0318239 -0.13882
-0.0323088 -0.0323096 -0.091859
-0.0325314 -0.0325317 -0.0325755
-0.0324577 -0.0324314 0.032587
-0.0321949 -0.0321785 0.0918709
-0.0317231 -0.0316979 0.138812
-0.0309243 -0.0309044 0.185786
-0.0309613 0.0310944 -0.185791
-0.031764 0.03192 -0.138813
-0.0322289 0.0324118 -0.0918482
-0.032474 0.0326785 -0.0325637
-0.0321789 0.0329406 0.0325988
-0.0319256 0.0327066 0.0918724
-0.0314637 0.0322088 0.138804
-0.0306626 0.0313581 0.185777
-0.0305646 0.0872683 -0.184265
-0.0313126 0.0897809 -0.137518
-0.0317486 0.091279 -0.0910423
-0.0320312 0.0920178 -0.0322862
-0.0337639 0.0928799 0.0323982
-0.0334505 0.0921207 0.0911454
-0.033024 0.0905899 0.137526
-0.0325455 0.0880417 0.184198
-0.0297025 0.131098 -0.180334
-0.0301141 0.135433 -0.134809
-0.030173 0.138023 -0.0891038
-0.0365796 0.139334 -0.0303185
0.00259518 0.139299 0.0325056
1.54741e-05 0.138043 0.0896837
6.34052e-05 0.135441 0.134409
0.000350956 0.131094 0.179767
-0.00080135 0.172192 -0.171602
-0.00100486 0.18038 -0.130044
-0.00105646 0.184221 -0.0866825
-0.00109644 0.185736 -0.0308277
-0.000150426 0.185211 0.0309955
-9.43859e-05 0.18367 0.0867585
-0.000103219 0.179853 0.130035
-5.74517e-05 0.171703 0.171548
0.0297205 -0.172212 -0.172213
0.0304167 -0.18042 -0.130687
0.0308294 -0.184279 -0.087133
0.0310418 -0.185793 -0.0310415
0.0310431 -0.185791 0.0310406
0.0308317 -0.184275 0.0871312
0.030419 -0.180417 0.130688
0.029723 -0.172208 0.172212
0.0304202 -0.130678 -0.18042
0.0311839 -0.134972 -0.134981
0.0316358 -0.137542 -0.0896178
0.0318681 -0.1388 -0.0318515
0.0318826 -0.138773 0.0318571
0.0316541 -0.137501 0.0896262
0.0312019 -0.134931 0.134982
0.0304381 -0.130644 0.180424
0.0308466 -0.0870964 -0.184279
0.0316496 -0.0895798 -0.137554
0.0321238 -0.0910543 -0.0911032
0.0323776 -0.0917932 -0.0323289
0.0324379 -0.0916577 0.032343
0.032205 -0.0908846 0.0911095
0.0317258 -0.0894162 0.13755
0.0309143 -0.0869477 0.184271
0.0310953 -0.0309611 -0.185792
0.031919 -0.0317644 -0.138814
0.0324106 -0.0322264 -0.0918477
0.0326808 -0.032461 -0.0325605
0.0328477 -0.0321184 0.0326034
0.0326186 -0.031852 0.0918706
0.0321139 -0.0313986 0.138802
0.0312688 -0.0306251 0.185774
0.031196 0.0311963 -0.185785
0.0320326 0.0320328 -0.1388
0.0325395 0.0325435 -0.091833
0.0327748 0.0327609 -0.0325395
0.0336904 0.0334508 0.0326207
0.0334202 0.0331945 0.0918615
0.0328929 0.0326649 0.138784
0.0320713 0.0317954 0.185766
0.0313245 0.0874172 -0.184241
0.0321799 0.0899505 -0.137463
0.0327051 0.0914887 -0.0910272
0.0331659 0.0920229 -0.032399
0.0272179 0.093904 0.0323475
0.0273146 0.0930104 0.0911881
0.0268339 0.0914484 0.137598
0.0258172 0.0888895 0.184201
0.0302862 0.131337 -0.180253
0.0314443 0.13567 -0.134476
0.0330964 0.138298 -0.088153
0.017802 0.139626 -0.028173
0.0800678 0.139091 0.0316586
0.0724153 0.137945 0.0897116
0.071478 0.135305 0.134027
0.0700609 0.13089 0.178944
0.0658448 0.172107 -0.170863
0.0672614 0.180256 -0.129415
0.0681934 0.184128 -0.0862892
0.0684842 0.185746 -0.0306951
0.0696051 0.184581 0.0309109
0.0691284 0.183076 0.0864487
0.0681338 0.17929 0.129457
0.0664555 0.17121 0.170762
0.0831108 -0.17098 -0.170983
0.0852347 -0.17904 -0.129631
0.0864888 -0.182805 -0.0864893
0.0871351 -0.184268 -0.0308263
0.0871377 -0.184259 0.0308298
0.0864969 -0.182788 0.0864866
0.0852421 -0.179023 0.129631
0.083117 -0.170965 0.17098
0.085248 -0.129586 -0.179043
0.0875572 -0.133755 -0.13381
0.0889329 -0.136256 -0.0889092
0.0896572 -0.13746 -0.0316169
0.0896927 -0.137323 0.0316376
0.0889944 -0.136068 0.0889144
0.087616 -0.133569 0.133805
0.0852972 -0.12942 0.179033
0.0865454 -0.086342 -0.182805
0.088982 -0.088743 -0.136312
0.0904456 -0.0901739 -0.0903467
0.0912008 -0.0908828 -0.0320599
0.0913542 -0.0903186 0.0321275
0.0906221 -0.0895505 0.0903695
0.0891545 -0.0881346 0.136306
0.0867025 -0.0857827 0.18279
0.0872697 -0.030567 -0.184264
0.0897796 -0.0313229 -0.137529
0.0912749 -0.0317654 -0.0910665
0.0920523 -0.0320579 -0.0322687
0.0923532 -0.03082 0.032396
0.0916172 -0.0306191 0.0911109
0.0900912 -0.0302112 0.137511
0.0875579 -0.029499 0.184218
0.0874177 0.0313185 -0.184241
0.0899465 0.0321655 -0.137495
0.0914638 0.032694 -0.0910364
0.0920785 0.032673 -0.032203
0.094379 0.0348011 0.0324337
0.0934877 0.0343427 0.091091
0.0919088 0.0337797 0.137461
0.089389 0.0329055 0.18421
0.087348 0.0873407 -0.182716
0.0898536 0.0898483 -0.136124
0.0913664 0.0914442 -0.0903706
0.0933924 0.0915916 -0.0323741
0.0828049 0.0953413 0.0320436
0.083312 0.0938502 0.0904297
0.0818505 0.092287 0.136472
0.0794297 0.0897882 0.182831
0.0849722 0.131043 -0.178729
0.0877275 0.135252 -0.132119
0.0918963 0.13779 -0.0841388
0.0669471 0.139321 -0.0233537
0.143796 0.135482 0.0286683
0.13034 0.134833 0.0873933
0.128827 0.132218 0.132603
0.12563 0.127837 0.175897
0.119278 0.170212 -0.168102
0.122378 0.178203 -0.127454
0.124416 0.181903 -0.0851498
0.124922 0.18409 -0.0303394
0.126186 0.181703 0.0306118
0.125488 0.180576 0.0854417
0.123414 0.176958 0.127684
0.119971 0.169139 0.16794
0.123931 -0.167865 -0.167886
0.12751 -0.175489 -0.127505
0.129637 -0.179016 -0.0852244
0.130698 -0.180372 -0.0304088
0.130712 -0.180305 0.0304224
0.129656 -0.178916 0.0852335
0.127528 -0.175391 0.127503
0.123949 -0.167774 0.167887
0.127554 -0.127162 -0.175504
0.1315 -0.131042 -0.131432
0.133874 -0.133374 -0.0875092
0.135066 -0.134435 -0.03112
0.135194 -0.133503 0.0312244
0.134035 -0.132227 0.0875446
0.131654 -0.129908 0.131422
0.127697 -0.126157 0.175479
0.129819 -0.0842102 -0.179004
0.134022 -0.0862991 -0.13376
0.136555 -0.0875981 -0.0888334
0.137805 -0.0884306 -0.0314884
0.138236 -0.0860371 0.0317445
0.137016 -0.0852887 0.0889331
0.134468 -0.0840152 0.133738
0.130236 -0.082195 0.178913
0.131101 -0.0297014 -0.180335
0.135443 -0.0301531 -0.134859
0.138042 -0.0304719 -0.0894573
0.139256 -0.0312678 -0.0316477
0.139995 -0.0274325 0.0320398
0.138705 -0.0273662 0.089663
0.136056 -0.0270336 0.13487
0.131723 -0.0267338 0.18018
0.131342 0.0302772 -0.18026
0.135698 0.0313344 -0.13479
0.138367 0.0320009 -0.0893686
0.138789 0.0314549 -0.0315109
0.144167 0.038752 0.0321096
0.142246 0.0383669 0.089675
0.139482 0.0377129 0.134793
0.135136 0.0364988 0.179904
0.131073 0.0849425 -0.178694
0.135355 0.0875436 -0.13342
0.137814 0.0893372 -0.0892487
0.142508 0.0897417 -0.0319247
0.127018 0.0969866 0.0319276
0.129362 0.0975771 0.0891858
0.126592 0.0958275 0.133837
0.122846 0.0930733 0.179512
0.128451 0.128311 -0.174132
0.132994 0.132437 -0.124266
0.141044 0.134992 -0.0703415
0.104384 0.138599 -0.0144202
0.162067 0.120789 0.0193324
0.15687 0.135455 0.0773793
0.155009 0.132207 0.129455
0.149455 0.128598 0.17039
0.156081 0.169899 -0.161994
0.162076 0.177441 -0.124204
0.166296 0.179471 -0.083555
0.166536 0.182562 -0.0293246
0.167094 0.179501 0.0306107
0.171263 0.176211 0.083809
0.167816 0.173125 0.124751
0.161357 0.165799 0.161711
0.161427 -0.161269 -0.161421
0.167896 -0.167734 -0.123925
0.170986 -0.170815 -0.0830989
0.172219 -0.171973 -0.0296857
0.172239 -0.171345 0.0297538
0.171009 -0.170085 0.0831105
0.167917 -0.16702 0.123915
0.161447 -0.160534 0.161419
0.167922 -0.120362 -0.167859
0.175548 -0.123867 -0.127442
0.179077 -0.125858 -0.0850899
0.18046 -0.127104 -0.0300598
0.180543 -0.116769 0.0307223
0.179155 -0.115912 0.0852429
0.175619 -0.114047 0.12737
0.167991 -0.110633 0.167756
0.171011 -0.0672296 -0.170765
0.179064 -0.0689908 -0.129284
0.182837 -0.0697305 -0.0858551
0.184296 -0.075361 -0.0294005
0.184287 -0.0403098 0.0313332
0.182817 -0.0424591 0.0864977
0.179046 -0.0418123 0.129016
0.171008 -0.0404554 0.170229
0.172195 -0.000772589 -0.171567
0.180387 -0.000811261 -0.129597
0.184228 0.000316495 -0.0851566