# vtk DataFile Version 3.0
Molecular Dynamics Particle Data
ASCII
DATASET POLYDATA
POINTS 500 float
0.406231 0.406231 0.406231
0.402005 0.402005 0.549679
0.400737 0.400737 0.674655
0.400338 0.400338 0.792163
0.400338 0.400338 0.907836
0.400737 0.400737 1.02534
0.402005 0.402005 1.15032
0.406231 0.406231 1.29377
0.402005 0.549679 0.402005
0.39706 0.547681 0.547681
0.395599 0.546828 0.673608
0.395143 0.546482 0.791823
0.395143 0.546482 0.90818
0.395599 0.546828 1.02639
0.397061 0.547682 1.15232
0.402005 0.549679 1.298
0.400737 0.674655 0.400737
0.395599 0.673608 0.546828
0.39405 0.673121 0.673121
0.393564 0.672908 0.791659
0.393564 0.672907 0.908341
0.394051 0.673121 1.02688
0.395599 0.673608 1.15317
0.400737 0.674655 1.29926
0.400338 0.792163 0.400338
0.395143 0.791823 0.546482
0.393564 0.791659 0.672908
0.393063 0.791586 0.791586
0.393063 0.791586 0.908413
0.393565 0.791659 1.02709
0.395144 0.791823 1.15352
0.400338 0.792163 1.29966
0.400338 0.907836 0.400338
0.395144 0.90818 0.546482
0.393564 0.908341 0.672908
0.393063 0.908413 0.791586
0.393064 0.908413 0.908413
0.393565 0.908341 1.02709
0.395144 0.90818 1.15352
0.400339 0.907836 1.29966
0.400737 1.02534 0.400737
0.3956 1.02639 0.546828
0.394052 1.02688 0.673121
0.393566 1.02709 0.791659
0.393567 1.02709 0.908341
0.394054 1.02688 1.02688
0.395602 1.02639 1.15317
0.400739 1.02534 1.29926
0.402007 1.15032 0.402005
0.397062 1.15232 0.547682
0.395602 1.15317 0.673608
0.395147 1.15352 0.791823
0.395154 1.15352 0.90818
0.395611 1.15317 1.02639
0.397071 1.15232 1.15232
0.402015 1.15032 1.298
0.406241 1.29377 0.406232
0.402015 1.298 0.549679
0.400747 1.29926 0.674655
0.40035 1.29966 0.792163
0.400351 1.29966 0.907836
0.400749 1.29926 1.02534
0.402017 1.298 1.15032
0.406242 1.29377 1.29377
0.549679 0.402005 0.402005
0.547681 0.39706 0.547681
0.546828 0.395599 0.673608
0.546482 0.395143 0.791823
0.546482 0.395143 0.90818
0.546828 0.395599 1.02639
0.547682 0.39706 1.15232
0.549679 0.402005 1.298
0.547681 0.547681 0.39706
0.545439 0.545439 0.545439
0.544471 0.544471 0.672437
0.544082 0.544082 0.79144
0.544082 0.544082 0.908561
0.544471 0.544471 1.02756
0.545439 0.545439 1.15456
0.547682 0.547682 1.30294
0.546828 0.673608 0.395599
0.544471 0.672438 0.544471
0.543447 0.671893 0.671893
0.543036 0.671656 0.79126
0.543036 0.671656 0.90874
0.543447 0.671893 1.02811
0.544471 0.672438 1.15553
0.546828 0.673608 1.3044
0.546483 0.791823 0.395143
0.544083 0.791441 0.544082
0.543036 0.79126 0.671656
0.542614 0.791181 0.79118
0.542615 0.791181 0.908822
0.543038 0.791261 1.02834
0.544084 0.791441 1.15592
0.546484 0.791823 1.30486
0.546484 0.90818 0.395144
0.544084 0.908561 0.544082
0.543038 0.908741 0.671656
0.542618 0.908824 0.79118
0.542623 0.908826 0.908822
0.543045 0.908744 1.02834
0.544091 0.908565 1.15592
0.54649 0.908182 1.30486
0.546833 1.02639 0.395599
0.544479 1.02756 0.544471
0.543457 1.02811 0.671894
0.543054 1.02835 0.791263
0.543086 1.02836 0.908742
0.543503 1.02812 1.02811
0.544526 1.02757 1.15553
0.546873 1.0264 1.3044
0.547719 1.15232 0.397061
0.545484 1.15457 0.54544
0.544523 1.15553 0.672441
0.544163 1.15592 0.791451
0.544432 1.15593 0.90857
0.544838 1.15554 1.02756
0.545793 1.15457 1.15456
0.548019 1.15232 1.30294
0.549997 1.298 0.402009
0.548016 1.30294 0.547686
0.547176 1.3044 0.673612
0.546845 1.30486 0.791826
0.546868 1.30486 0.90818
0.547212 1.3044 1.02639
0.548052 1.30294 1.15231
0.550027 1.29799 1.29799
0.674655 0.400737 0.400737
0.673608 0.395599 0.546828
0.673121 0.39405 0.673121
0.672907 0.393564 0.791659
0.672908 0.393564 0.908341
0.673121 0.39405 1.02688
0.673608 0.395599 1.15317
0.674655 0.400737 1.29926
0.673608 0.546828 0.395599
0.672438 0.544471 0.544471
0.671893 0.543447 0.671893
0.671656 0.543036 0.79126
0.671656 0.543036 0.90874
0.671893 0.543447 1.02811
0.672438 0.544471 1.15553
0.673608 0.546828 1.3044
0.673121 0.673121 0.39405
0.671893 0.671893 0.543447
0.67132 0.67132 0.671319
0.671069 0.671069 0.791071
0.671069 0.671069 0.908931
0.671322 0.671322 1.02868
0.671894 0.671894 1.15655
0.673122 0.673122 1.30595
0.672909 0.79166 0.393564
0.671657 0.791261 0.543036
0.67107 0.791072 0.671068
0.670815 0.790986 0.790985
0.670818 0.79099 0.909015
0.671077 0.791077 1.02893
0.671664 0.791266 1.15696
0.672915 0.791664 1.30644
0.672913 0.908343 0.393564
0.671663 0.908744 0.543036
0.671078 0.908936 0.671069
0.670826 0.909022 0.790986
0.670844 0.909034 0.909017
0.671106 0.908952 1.02893
0.671692 0.90876 1.15696
0.672937 0.908356 1.30643
0.673148 1.02689 0.394052
0.671927 1.02812 0.543449
0.671363 1.02869 0.671325
0.671144 1.02895 0.791083
0.671296 1.02899 0.908942
0.671577 1.02874 1.02868
0.672141 1.02817 1.15655
0.673322 1.02693 1.30594
0.673816 1.1532 0.395606
0.672688 1.15556 0.544479
0.672172 1.15659 0.671915
0.67201 1.157 0.791335
0.674368 1.15701 0.908805
0.67465 1.15659 1.0281
0.675131 1.15557 1.15549
0.67618 1.1532 1.30437
0.677086 1.29926 0.400765
0.676149 1.3044 0.54686
0.675729 1.30595 0.673147
0.675573 1.30643 0.791676
0.675696 1.30641 0.90834
0.675901 1.30592 1.02686
0.676318 1.30437 1.15314
0.67723 1.29923 1.29923
0.792163 0.400338 0.400338
0.791823 0.395143 0.546482
0.791659 0.393564 0.672907
0.791586 0.393063 0.791586
0.791586 0.393063 0.908413
0.791659 0.393565 1.02709
0.791823 0.395144 1.15352
0.792163 0.400338 1.29966
0.791823 0.546482 0.395143
0.791441 0.544083 0.544082
0.79126 0.543036 0.671656
0.791181 0.542614 0.79118
0.791181 0.542614 0.908822
0.791261 0.543037 1.02834
0.791442 0.544084 1.15592
0.791823 0.546484 1.30486
0.79166 0.672909 0.393564
0.791261 0.671657 0.543036
0.791072 0.67107 0.671068
0.790986 0.670815 0.790985
0.79099 0.670818 0.909015
0.791077 0.671075 1.02893
0.791266 0.671664 1.15696
0.791663 0.672914 1.30643
0.791591 0.791591 0.393063
0.791186 0.791185 0.542613
0.79099 0.79099 0.670812
0.79091 0.79091 0.790899
0.790922 0.790924 0.909103
0.791013 0.791012 1.02919
0.791204 0.791206 1.15739
0.791607 0.791609 1.30693
0.791602 0.908423 0.393064
0.791199 0.908835 0.542615
0.79101 0.909029 0.670814
0.79093 0.909127 0.790904
0.790984 0.90917 0.909107
0.791078 0.909088 1.02919
0.791269 0.908892 1.15738
0.791663 0.908472 1.30693
0.791726 1.02712 0.393567
0.791345 1.02838 0.543043
0.79117 1.02897 0.671084
0.791124 1.02924 0.791014
0.791257 1.02939 0.909042
0.791395 1.02914 1.02894
0.791568 1.02855 1.15695
0.791869 1.02727 1.30641
0.792253 1.15361 0.395163
0.791973 1.15602 0.544111
0.791862 1.15707 0.671742
0.791459 1.1575 0.791461
0.799709 1.15752 0.909029
0.79965 1.15709 1.02833
0.799679 1.15604 1.15579
0.79976 1.15363 1.30473
0.799656 1.29966 0.400455
0.799592 1.30485 0.546611
0.799579 1.30643 0.673005
0.799611 1.30692 0.791641
0.799906 1.30681 0.908405
0.799951 1.3063 1.02701
0.799962 1.30474 1.15338
0.799971 1.29955 1.29953
0.907836 0.400338 0.400338
0.90818 0.395144 0.546482
0.908341 0.393564 0.672907
0.908413 0.393063 0.791586
0.908413 0.393063 0.908413
0.908341 0.393565 1.02709
0.90818 0.395144 1.15352
0.907836 0.400339 1.29966
0.90818 0.546484 0.395144
0.908561 0.544083 0.544082
0.908741 0.543038 0.671656
0.908824 0.542617 0.79118
0.908826 0.542621 0.908822
0.908744 0.543043 1.02834
0.908565 0.544089 1.15592
0.908182 0.546488 1.30486
0.908343 0.672913 0.393564
0.908744 0.671662 0.543036
0.908935 0.671077 0.671068
0.909022 0.670824 0.790986
0.90903 0.670843 0.909016
0.908947 0.671103 1.02893
0.908756 0.671689 1.15696
0.908353 0.672936 1.30643
0.908423 0.791602 0.393064
0.908835 0.791198 0.542615
0.909029 0.79101 0.670814
0.909127 0.790932 0.790904
0.909158 0.790995 0.909107
0.909079 0.791091 1.02919
0.90888 0.791278 1.15738
0.908463 0.791672 1.30693
0.90845 0.90845 0.393066
0.908866 0.908865 0.54262
0.909068 0.909068 0.67082
0.909165 0.909167 0.790913
0.909311 0.909318 0.909113
0.909234 0.909243 1.02919
0.90903 0.909035 1.15738
0.908603 0.908603 1.30693
0.908476 1.02717 0.393576
0.908903 1.02844 0.543057
0.909116 1.02904 0.671109
0.909231 1.0293 0.791028
0.908727 1.02972 0.909057
0.908711 1.02948 1.02895
0.908511 1.02886 1.15695
0.907991 1.02756 1.30638
0.908628 1.15375 0.395199
0.909166 1.15618 0.544176
0.909522 1.15725 0.67195
0.907686 1.15768 0.79199
0.925808 1.1577 0.909172
0.92485 1.15728 1.02836
0.924416 1.15621 1.15559
0.923545 1.15377 1.30443
0.922247 1.29965 0.40072
0.923043 1.30483 0.54684
0.923435 1.30641 0.673159
0.923631 1.30689 0.791713
0.924125 1.30657 0.908387
0.924011 1.30604 1.02689
0.923604 1.30449 1.15315
0.922709 1.29933 1.29924
1.02534 0.400737 0.400737
1.02639 0.3956 0.546828
1.02688 0.394052 0.673121
1.02709 0.393566 0.791659
1.02709 0.393566 0.908341
1.02688 0.394054 1.02688
1.02639 0.395603 1.15317
1.02535 0.400739 1.29926
1.02639 0.546833 0.395599
1.02756 0.544478 0.544471
1.02811 0.543456 0.671894
1.02835 0.543051 0.791262
1.02835 0.543068 0.908741
1.02812 0.543483 1.02811
1.02757 0.544506 1.15553
1.0264 0.546856 1.3044
1.02689 0.673148 0.394052
1.02812 0.671926 0.543449
1.02869 0.671359 0.671323
1.02895 0.671124 0.791078
1.02897 0.671215 0.908937
1.02873 0.671478 1.02868
1.02815 0.672046 1.15655
1.02691 0.673251 1.30594
1.02712 0.791726 0.393568
1.02838 0.791342 0.543043
1.02897 0.791163 0.671078
1.02924 0.791097 0.791003
1.02932 0.791361 0.90903
1.02907 0.791464 1.02893
1.02847 0.791637 1.15695
1.0272 0.791993 1.30642
1.02717 0.908475 0.393576
1.02844 0.908899 0.543054
1.02904 0.909105 0.671094
1.02931 0.90919 0.791025
1.02973 0.909737 0.909045
1.02948 0.909658 1.02893
1.02887 0.909439 1.15694
1.02759 0.908979 1.30641
1.02716 1.02715 0.394083
1.02843 1.02842 0.543513
1.02904 1.02903 0.671401
1.02941 1.02921 0.791103
1.0274 1.03036 0.908989
1.02732 1.03006 1.02872
1.02675 1.02943 1.15654
1.02543 1.02812 1.30585
1.02672 1.15384 0.395729
1.0281 1.15625 0.544799
1.02913 1.15731 0.672962
1.02416 1.15779 0.793616
1.0579 1.15723 0.90855
1.05499 1.15689 1.02813
1.0541 1.15582 1.1549
1.05215 1.15337 1.30312
1.04924 1.29915 0.401866
1.05101 1.30427 0.547645
1.05183 1.3058 0.673658
1.05215 1.30634 0.791906
1.05293 1.30542 0.9083
1.05271 1.30493 1.0265
1.05187 1.30343 1.15238
1.04992 1.29841 1.29802
1.15032 0.402007 0.402005
1.15232 0.397062 0.547682
1.15317 0.395603 0.673608
1.15352 0.395149 0.791824
1.15352 0.395155 0.90818
1.15318 0.395613 1.02639
1.15232 0.397073 1.15232
1.15032 0.402017 1.298
1.15232 0.547719 0.397061
1.15457 0.545484 0.54544
1.15553 0.544524 0.672442
1.15593 0.544162 0.791449
1.15595 0.544292 0.908568
1.15556 0.544703 1.02756
1.15459 0.545662 1.15456
1.15234 0.547873 1.30293
1.1532 0.673816 0.395606
1.15556 0.672688 0.544479
1.15659 0.672168 0.67191
1.15701 0.671983 0.791293
1.15709 0.672537 0.908769
1.15669 0.672836 1.02811
1.15565 0.673352 1.15551
1.15329 0.674388 1.30437
1.15361 0.792253 0.395164
1.15602 0.791971 0.54411
1.15708 0.791833 0.671703
1.15752 0.791742 0.791254
1.15773 0.792793 0.908884
1.15732 0.792932 1.02835
1.15625 0.793067 1.15588
1.15382 0.79322 1.30479
1.15375 0.908628 0.395202
1.15618 0.909151 0.54415
1.15726 0.909398 0.671759
1.15763 0.90937 0.791318
1.15892 0.911289 0.908936
1.15846 0.911261 1.02837
1.15735 0.911016 1.15584
1.15486 0.910363 1.30468
1.15385 1.02671 0.395748
1.15629 1.02805 0.544721
1.15738 1.02872 0.672082
1.15833 1.02879 0.791366
1.15399 1.03252 0.908998
1.15413 1.03247 1.0282
1.15308 1.03181 1.15546
1.15077 1.03029 1.30426
1.15284 1.15281 0.397573
1.15538 1.1552 0.547148
1.1577 1.15627 0.676848
1.14743 1.15727 0.799401
1.20186 1.15343 0.905242
1.19972 1.15608 1.0264
1.19852 1.15491 1.15376
1.19456 1.15245 1.29885
1.1915 1.29862 0.405744
1.19523 1.30365 0.549628
1.19664 1.30486 0.674697
1.19707 1.30549 0.792359
1.19868 1.30276 0.908247
1.19932 1.30176 1.02576
1.19799 1.30045 1.15062
1.19377 1.29584 1.29386
1.29377 0.406241 0.406231
1.298 0.402015 0.549679
1.29926 0.400749 0.674656
1.29966 0.400359 0.792167
1.29966 0.400415 0.907839
1.29926 0.400819 1.02534
1.298 0.402084 1.15032
1.29377 0.406308 1.29377
1.298 0.549997 0.402009
1.30294 0.548019 0.547688
1.3044 0.547188 0.673626
1.30486 0.546919 0.791876
1.30487 0.548325 0.908226
1.30441 0.548703 1.02639
1.30295 0.549507 1.1523
1.298 0.551431 1.29798
1.29926 0.677088 0.400766
1.3044 0.67616 0.546873
1.30595 0.675782 0.673221
1.30644 0.675362 0.791923
1.30644 0.682907 0.908525
1.30595 0.682973 1.02686
1.3044 0.683267 1.15305
1.29927 0.683952 1.29913
1.29966 0.799662 0.40046
1.30485 0.799632 0.546672
1.30643 0.799776 0.673281
1.30693 0.797835 0.792451
1.30692 0.816521 0.908693
1.30643 0.815569 1.02706
1.30484 0.815352 1.15313
1.29966 0.814915 1.29918
1.29965 0.92226 0.400744
1.30484 0.92314 0.5471
1.30642 0.924033 0.674167
1.30693 0.91906 0.793984
1.30669 0.952176 0.908134
1.30622 0.94939 1.02695
1.30464 0.948706 1.15267
1.29947 0.947122 1.29821
1.29916 1.04928 0.402053
1.30428 1.05127 0.548978
1.30581 1.05349 0.677316
1.30626 1.04456 0.798573
1.31242 1.08994 0.906913
1.31202 1.09155 1.02589
1.31018 1.09044 1.15185
1.30441 1.08717 1.29469
1.29869 1.19151 0.407695
1.30384 1.19516 0.568258
1.3051 1.196 0.727204
1.31371 1.2086 0.875646
VERTICES 500 1000
1 0
1 1
1 2
1 3
1 4
1 5
1 6
1 7
1 8
1 9
1 10
1 11
1 12
1 13
1 14
1 15
1 16
1 17
1 18
1 19
1 20
1 21
1 22
1 23
1 24
1 25
1 26
1 27
1 28
1 29
1 30
1 31
1 32
1 33
1 34
1 35
1 36
1 37
1 38
1 39
1 40
1 41
1 42
1 43
1 44
1 45
1 46
1 47
1 48
1 49
1 50
1 51
1 52
1 53
1 54
1 55
1 56
1 57
1 58
1 59
1 60
1 61
1 62
1 63
1 64
1 65
1 66
1 67
1 68
1 69
1 70
1 71
1 72
1 73
1 74
1 75
1 76
1 77
1 78
1 79
1 80
1 81
1 82
1 83
1 84
1 85
1 86
1 87
1 88
1 89
1 90
1 91
1 92
1 93
1 94
1 95
1 96
1 97
1 98
1 99
1 100
1 101
1 102
1 103
1 104
1 105
1 106
1 107
1 108
1 109
1 110
1 111
1 112
1 113
1 114
1 115
1 116
1 117
1 118
1 119
1 120
1 121
1 122
1 123
1 124
1 125
1 126
1 127
1 128
1 129
1 130
1 131
1 132
1 133
1 134
1 135
1 136
1 137
1 138
1 139
1 140
1 141
1 142
1 143
1 144
1 145
1 146
1 147
1 148
1 149
1 150
1 151
1 152
1 153
1 154
1 155
1 156
1 157
1 158
1 159
1 160
1 161
1 162
1 163
1 164
1 165
1 166
1 167
1 168
1 169
1 170
1 171
1 172
1 173
1 174
1 175
1 176
1 177
1 178
1 179
1 180
1 181
1 182
1 183
1 184
1 185
1 186
1 187
1 188
1 189
1 190
1 191
1 192
1 193
1 194
1 195
1 196
1 197
1 198
1 199
1 200
1 201
1 202
1 203
1 204
1 205
1 206
1 207
1 208
1 209
1 210
1 211
1 212
1 213
1 214
1 215
1 216
1 217
1 218
1 219
1 220
1 221
1 222
1 223
1 224
1 225
1 226
1 227
1 228
1 229
1 230
1 231
1 232
1 233
1 234
1 235
1 236
1 237
1 238
1 239
1 240
1 241
1 242
1 243
1 244
1 245
1 246
1 247
1 248
1 249
1 250
1 251
1 252
1 253
1 254
1 255
1 256
1 257
1 258
1 259
1 260
1 261
1 262
1 263
1 264
1 265
1 266
1 267
1 268
1 269
1 270
1 271
1 272
1 273
1 274
1 275
1 276
1 277
1 278
1 279
1 280
1 281
1 282
1 283
1 284
1 285
1 286
1 287
1 288
1 289
1 290
1 291
1 292
1 293
1 294
1 295
1 296
1 297
1 298
1 299
1 300
1 301
1 302
1 303
1 304
1 305
1 306
1 307
1 308
1 309
1 310
1 311
1 312
1 313
1 314
1 315
1 316
1 317
1 318
1 319
1 320
1 321
1 322
1 323
1 324
1 325
1 326
1 327
1 328
1 329
1 330
1 331
1 332
1 333
1 334
1 335
1 336
1 337
1 338
1 339
1 340
1 341
1 342
1 343
1 344
1 345
1 346
1 347
1 348
1 349
1 350
1 351
1 352
1 353
1 354
1 355
1 356
1 357
1 358
1 359
1 360
1 361
1 362
1 363
1 364
1 365
1 366
1 367
1 368
1 369
1 370
1 371
1 372
1 373
1 374
1 375
1 376
1 377
1 378
1 379
1 380
1 381
1 382
1 383
1 384
1 385
1 386
1 387
1 388
1 389
1 390
1 391
1 392
1 393
1 394
1 395
1 396
1 397
1 398
1 399
1 400
1 401
1 402
1 403
1 404
1 405
1 406
1 407
1 408
1 409
1 410
1 411
1 412
1 413
1 414
1 415
1 416
1 417
1 418
1 419
1 420
1 421
1 422
1 423
1 424
1 425
1 426
1 427
1 428
1 429
1 430
1 431
1 432
1 433
1 434
1 435
1 436
1 437
1 438
1 439
1 440
1 441
1 442
1 443
1 444
1 445
1 446
1 447
1 448
1 449
1 450
1 451
1 452
1 453
1 454
1 455
1 456
1 457
1 458
1 459
1 460
1 461
1 462
1 463
1 464
1 465
1 466
1 467
1 468
1 469
1 470
1 471
1 472
1 473
1 474
1 475
1 476
1 477
1 478
1 479
1 480
1 481
1 482
1 483
1 484
1 485
1 486
1 487
1 488
1 489
1 490
1 491
1 492
1 493
1 494
1 495
1 496
1 497
1 498
1 499
POINT_DATA 500
VECTORS velocity float
-0.158428 -0.158428 -0.158428
-0.16495 -0.164949 -0.118183
-0.167917 -0.167917 -0.0782568
-0.169085 -0.169085 -0.028273
-0.169085 -0.169085 0.0282736
-0.167917 -0.167917 0.0782528
-0.16495 -0.16495 0.118181
-0.158428 -0.158428 0.158429
-0.164949 -0.118183 -0.164949
-0.172635 -0.121799 -0.121799
-0.176023 -0.123884 -0.0804375
-0.177334 -0.124917 -0.0290087
-0.177334 -0.124917 0.0290116
-0.176023 -0.123884 0.08044
-0.172635 -0.1218 0.121798
-0.164949 -0.118184 0.164954
-0.167917 -0.0782568 -0.167917
-0.176023 -0.0804371 -0.123884
-0.179637 -0.0817096 -0.0817101
-0.181036 -0.0823601 -0.0294378
-0.181036 -0.0823602 0.0294393
-0.179637 -0.0817096 0.081705
-0.176023 -0.0804367 0.123885
-0.167917 -0.0782557 0.167914
-0.169084 -0.0282729 -0.169085
-0.177334 -0.0290084 -0.124917
-0.181036 -0.0294378 -0.0823602
-0.182483 -0.0296592 -0.0296598
-0.182483 -0.0296585 0.029658
-0.181034 -0.0294374 0.0823592
-0.177332 -0.0290083 0.124918
-0.169084 -0.0282726 0.169084
-0.169084 0.028274 -0.169085
-0.177333 0.0290109 -0.124917
-0.181035 0.0294396 -0.0823597
-0.182481 0.0296586 -0.0296598
-0.182479 0.0296596 0.0296582
-0.181032 0.0294417 0.0823592
-0.17733 0.029013 0.124918
-0.169081 0.0282751 0.169083
-0.167915 0.0782538 -0.167917
-0.17602 0.0804419 -0.123884
-0.179631 0.0817068 -0.081709
-0.181028 0.0823613 -0.029437
-0.181018 0.082363 0.0294407
-0.179615 0.0817095 0.0817051
-0.176003 0.0804453 0.123885
-0.1679 0.0782567 0.167914
-0.164936 0.118183 -0.164949
-0.172621 0.1218 -0.121799
-0.176005 0.123888 -0.0804352
-0.177305 0.124921 -0.0290046
-0.17725 0.124922 0.029015
-0.175933 0.123889 0.0804389
-0.172551 0.121801 0.121797
-0.164866 0.118184 0.164953
-0.158346 0.158431 -0.158427
-0.164866 0.164956 -0.118182
-0.167828 0.167917 -0.0782548
-0.168987 0.169085 -0.0282719
-0.168979 0.169083 0.0282746
-0.167814 0.167914 0.0782512
-0.164851 0.164953 0.11818
-0.158333 0.158429 0.158427
-0.118184 -0.164949 -0.16495
-0.121799 -0.172635 -0.1218
-0.123884 -0.176023 -0.0804375
-0.124917 -0.177334 -0.0290087
-0.124917 -0.177334 0.0290116
-0.123884 -0.176023 0.08044
-0.1218 -0.172635 0.121798
-0.118184 -0.164949 0.164954
-0.121799 -0.121799 -0.172635
-0.125796 -0.125796 -0.125796
-0.128124 -0.128124 -0.0828217
-0.129269 -0.129269 -0.0298189
-0.129269 -0.129269 0.0298199
-0.128123 -0.128123 0.0828246
-0.125795 -0.125795 0.125795
-0.121799 -0.121799 0.172636
-0.123884 -0.0804368 -0.176023
-0.128123 -0.0828212 -0.128124
-0.130592 -0.0842139 -0.0842145
-0.1318 -0.0849258 -0.0302821
-0.1318 -0.0849251 0.0302831
-0.13059 -0.0842126 0.0842123
-0.128122 -0.0828194 0.128123
-0.123882 -0.0804352 0.17602
-0.124915 -0.029008 -0.177334
-0.129267 -0.0298169 -0.12927
-0.131799 -0.0302802 -0.0849271
-0.13304 -0.0305121 -0.0305153
-0.133035 -0.0305083 0.0305162
-0.13179 -0.0302732 0.084933
-0.12926 -0.0298104 0.129269
-0.124909 -0.029004 0.177336
-0.12491 0.0290142 -0.177333
-0.129261 0.0298223 -0.129268
-0.131789 0.0302884 -0.0849254
-0.133024 0.0305272 -0.0305133
-0.133001 0.030542 0.0305189
-0.131752 0.0303044 0.0849327
-0.129224 0.0298398 0.129268
-0.124881 0.0290301 0.177336
-0.123851 0.0804497 -0.176022
-0.12808 0.0828368 -0.128121
-0.130537 0.0842249 -0.0842083
-0.131699 0.0849533 -0.0302657
-0.131503 0.0849956 0.0302963
-0.130256 0.0842852 0.0842136
-0.127801 0.0828937 0.128115
-0.12361 0.0805022 0.176011
-0.121559 0.12183 -0.172629
-0.125512 0.125832 -0.125788
-0.127806 0.128163 -0.0827997
-0.128796 0.129312 -0.0297371
-0.126805 0.129327 0.0298835
-0.125576 0.128176 0.0828223
-0.12331 0.125846 0.125768
-0.119379 0.121842 0.172615
-0.115849 0.164971 -0.16493
-0.119395 0.172654 -0.121771
-0.121404 0.176039 -0.080411
-0.122357 0.177349 -0.0289921
-0.122214 0.177325 0.0290142
-0.121195 0.175998 0.0804205
-0.119188 0.172617 0.121767
-0.115668 0.164937 0.164929
-0.0782567 -0.167917 -0.167917
-0.0804373 -0.176023 -0.123884
-0.0817098 -0.179637 -0.0817101
-0.0823602 -0.181036 -0.0294378
-0.0823603 -0.181036 0.0294393
-0.0817095 -0.179637 0.0817051
-0.0804366 -0.176023 0.123885
-0.0782559 -0.167917 0.167915
-0.080437 -0.123884 -0.176023
-0.0828212 -0.128123 -0.128124
-0.084214 -0.130592 -0.0842145
-0.0849254 -0.1318 -0.0302821
-0.0849247 -0.1318 0.0302831
-0.0842126 -0.130591 0.084212
-0.0828192 -0.128121 0.128123
-0.0804351 -0.123883 0.17602
-0.0817087 -0.0817084 -0.179637
-0.0842126 -0.0842127 -0.130594
-0.0856788 -0.0856789 -0.0856811
-0.0864255 -0.086426 -0.0307589
-0.0864208 -0.0864208 0.0307651
-0.085669 -0.0856688 0.0856814
-0.0842053 -0.0842054 0.130593
-0.0817029 -0.0817028 0.179634
-0.0823517 -0.029434 -0.181035
-0.0849172 -0.0302742 -0.131801
-0.086421 -0.0307502 -0.086428
-0.0871747 -0.0310018 -0.0310128
-0.087157 -0.030983 0.0310146
-0.0863819 -0.0307256 0.0864331
-0.0848871 -0.0302446 0.1318
-0.0823239 -0.0294075 0.181036
-0.082331 0.0294533 -0.181036
-0.0848941 0.0302978 -0.131799
-0.0863843 0.0307871 -0.086425
-0.0871373 0.0310508 -0.0310062
-0.0870546 0.0311193 0.0310202
-0.0862725 0.0308781 0.0864328
-0.084778 0.0303846 0.131795
-0.0822333 0.0295269 0.181027
-0.081582 0.0817484 -0.17963
-0.0840626 0.0842642 -0.130582
-0.0854973 0.0857402 -0.0856527
-0.0861505 0.0865154 -0.0307046
-0.0856324 0.0867495 0.0308147
-0.0847723 0.0860223 0.0856869
-0.083346 0.0845366 0.130568
-0.0810424 0.0819997 0.179598
-0.0795002 0.124029 -0.175992
-0.0816956 0.128282 -0.128079
-0.0829713 0.130769 -0.0840889
-0.0838811 0.131985 -0.0298657
-0.0706299 0.132033 0.0306335
-0.0700207 0.13082 0.0841985
-0.068875 0.128332 0.127948
-0.0668327 0.124074 0.175851
-0.0652238 0.167937 -0.167761
-0.0670757 0.176036 -0.123706
-0.0680892 0.179652 -0.0815675
-0.0685287 0.181026 -0.0293589
-0.0679826 0.18088 0.0294313
-0.067387 0.179465 0.0815934
-0.0663832 0.175858 0.123691
-0.0646351 0.167769 0.167736
-0.028273 -0.169084 -0.169085
-0.0290085 -0.177334 -0.124917
-0.0294378 -0.181036 -0.0823603
-0.029659 -0.182483 -0.0296598
-0.029658 -0.182483 0.0296579
-0.0294374 -0.181034 0.0823592
-0.0290082 -0.177333 0.124918
-0.0282726 -0.169084 0.169083
-0.0290079 -0.124916 -0.177334
-0.0298169 -0.129267 -0.12927
-0.0302803 -0.131799 -0.0849271
-0.0305122 -0.13304 -0.0305149
-0.0305078 -0.133036 0.0305167
-0.0302733 -0.131793 0.0849325
-0.0298099 -0.129261 0.12927
-0.0290045 -0.124911 0.177336
-0.0294344 -0.082352 -0.181035
-0.0302743 -0.0849172 -0.131801
-0.0307506 -0.0864201 -0.0864281
-0.0310027 -0.0871753 -0.0310131
-0.0309881 -0.0871541 0.0310142
-0.0307341 -0.0863844 0.0864325
-0.0302503 -0.0848849 0.1318
-0.0294121 -0.0823233 0.181034
-0.029642 -0.0296426 -0.182483
-0.0304892 -0.0304901 -0.133043
-0.0309912 -0.0309923 -0.087191
-0.0312217 -0.0312222 -0.0312612
-0.0311624 -0.031144 0.0312689
-0.0308931 -0.0308842 0.0872033
-0.0304066 -0.030388 0.133035
-0.0295613 -0.0295478 0.182474
-0.0295901 0.0297008 -0.182479
-0.0304375 0.030569 -0.133036
-0.0309182 0.031076 -0.0871817
-0.0311659 0.0313536 -0.0312488
-0.0309393 0.0315622 0.0312806
-0.0306733 0.0313234 0.0872046
-0.0301939 0.0308137 0.133028
-0.029358 0.0299183 0.182466
-0.0291985 0.0824705 -0.181023
-0.0299888 0.0850608 -0.13177
-0.0304401 0.0865737 -0.0863669
-0.0307102 0.0873517 -0.0309458
-0.0315514 0.0880326 0.031085
-0.0312251 0.0872765 0.0864595
-0.0307805 0.0857318 0.131762
-0.0302321 0.0831036 0.180958
-0.0280542 0.12527 -0.177259
-0.0285349 0.129661 -0.129135
-0.0287173 0.132209 -0.0845092
-0.0330178 0.13349 -0.0292563
0.00132341 0.133525 0.0312274
-0.000346163 0.132282 0.0849434
-0.000305302 0.129723 0.128754
-5.51336e-05 0.125327 0.176788
-0.000863634 0.169078 -0.168578
-0.00105014 0.177311 -0.124363
-0.00109687 0.180996 -0.0819484
-0.00109412 0.182424 -0.0294529
-0.000175909 0.181983 0.029612
-9.91407e-05 0.180509 0.0820128
-0.000100254 0.176844 0.12435
-5.32533e-05 0.168646 0.168529
0.0282745 -0.169084 -0.169085
0.0290121 -0.177333 -0.124917
0.0294401 -0.181035 -0.0823603
0.0296589 -0.182481 -0.0296593
0.0296598 -0.182479 0.0296579
0.029442 -0.181033 0.0823591
0.0290133 -0.177331 0.124918
0.0282761 -0.169081 0.169083
0.0290141 -0.12491 -0.177333
0.0298223 -0.129262 -0.129268
0.0302883 -0.131791 -0.0849257
0.0305272 -0.133028 -0.0305136
0.0305377 -0.133009 0.0305185
0.0303009 -0.131762 0.0849327
0.0298355 -0.129232 0.129269
0.0290266 -0.124887 0.177337
0.0294529 -0.0823309 -0.181035
0.030298 -0.084895 -0.1318
0.0307866 -0.0863867 -0.086426
0.031047 -0.0871361 -0.0310082
0.0310927 -0.0870323 0.0310189
0.0308508 -0.0862517 0.0864315
0.0303583 -0.0847657 0.131797
0.0295036 -0.0822143 0.181029
0.0297015 -0.0295901 -0.182479
0.0305681 -0.0304385 -0.133037
0.0310756 -0.0309158 -0.0871822
0.0313529 -0.0311513 -0.0312472
0.0314933 -0.0308613 0.0312837
0.0312567 -0.0305831 0.0872024
0.0307418 -0.0301105 0.133027
0.0298541 -0.0292935 0.182464
0.0297931 0.0297934 -0.182474
0.0306728 0.0306732 -0.133024
0.031193 0.0311954 -0.0871674
0.0314502 0.0314454 -0.0312279
0.0321342 0.0320237 0.0312999
0.0318728 0.0317752 0.0871957
0.0313345 0.0312328 0.133012
0.030457 0.0303148 0.182457
0.0298724 0.0826116 -0.181002
0.0307728 0.0852218 -0.131719
0.0313095 0.0867667 -0.0863316
0.0316049 0.0873813 -0.0310232
0.0270592 0.0889101 0.031047
0.0269956 0.0880702 0.0865104
0.0265075 0.0864948 0.131811
0.0254564 0.0838437 0.180939
0.029074 0.125532 -0.17718
0.0302481 0.12993 -0.12887
0.0315723 0.132517 -0.0837043
0.0194964 0.133815 -0.027408
0.0762889 0.133579 0.0307255
0.0701094 0.1324 0.08506
0.0690837 0.129807 0.128311
0.0675733 0.125352 0.175983
0.0638001 0.169017 -0.167857
0.0652723 0.17721 -0.123732
0.0662077 0.180924 -0.0815318
0.0665646 0.182417 -0.0293033
0.0676657 0.181348 0.0295232
0.0671969 0.17989 0.0816914
0.0662014 0.176256 0.123754
0.064488 0.168129 0.167756
0.0782537 -0.167915 -0.167917
0.080441 -0.17602 -0.123884
0.0817067 -0.179631 -0.081709
0.0823617 -0.181028 -0.0294372
0.0823632 -0.181022 0.0294403
0.0817118 -0.179619 0.0817051
0.0804462 -0.176007 0.123885
0.0782576 -0.167904 0.167914
0.0804499 -0.123851 -0.176022
0.0828373 -0.12808 -0.128121
0.0842253 -0.130541 -0.0842099
0.0849546 -0.131725 -0.0302729
0.0849793 -0.131628 0.0302892
0.0842716 -0.130399 0.0842135
0.0828805 -0.12794 0.128117
0.0804853 -0.123728 0.176013
0.0817489 -0.0815822 -0.17963
0.0842647 -0.0840663 -0.130583
0.0857395 -0.0855107 -0.0856629
0.0865048 -0.0862192 -0.0307343
0.0866251 -0.0857667 0.0307916
0.085883 -0.0849831 0.085681
0.0844046 -0.0835487 0.130578
0.0818767 -0.0811168 0.179618
0.0824718 -0.0292006 -0.181022
0.0850597 -0.0299982 -0.131777
0.0865697 -0.0304562 -0.0863941
0.0873622 -0.030718 -0.0309525
0.0876245 -0.0296394 0.031067
0.0868798 -0.0293974 0.0864315
0.0853428 -0.028971 0.131762
0.0827311 -0.0282241 0.180983
0.0826122 0.0298676 -0.181001
0.0852204 0.0307604 -0.131745
0.0867488 0.0312911 -0.0863645
0.0874405 0.0313577 -0.030896
0.0892631 0.0332159 0.0310978
0.0884114 0.0328264 0.0864167
0.0868274 0.0322546 0.13172
0.0842142 0.0313215 0.180976
0.0824692 0.0824624 -0.179551
0.0850557 0.0850452 -0.130397
0.0865959 0.0866341 -0.0856101
0.0881751 0.0868599 -0.0309674
0.0791058 0.0901866 0.0307383
0.0792241 0.0889014 0.0857581
0.0777749 0.0873201 0.130702
0.0752699 0.0847224 0.179601
0.0801096 0.125261 -0.175737
0.0828952 0.129548 -0.126783
0.0864783 0.132063 -0.0801097
0.0646816 0.133537 -0.0226868
0.139077 0.130426 0.0272883
0.12636 0.12964 0.0832919
0.124608 0.127082 0.12689
0.121324 0.122663 0.172992
0.114867 0.167306 -0.165179
0.118012 0.175342 -0.12178
0.119996 0.178904 -0.0803377
0.120582 0.180857 -0.0289225
0.121856 0.178593 0.0291996
0.121064 0.177442 0.0806648
0.119021 0.173974 0.121971
0.115547 0.166109 0.165003
0.118183 -0.164936 -0.164949
0.1218 -0.172621 -0.121799
0.123889 -0.176004 -0.0804343
0.124925 -0.1773 -0.0290042
0.124933 -0.177256 0.0290154
0.123901 -0.175936 0.0804404
0.121813 -0.172553 0.121797
0.118195 -0.164876 0.164951
0.12183 -0.121558 -0.172629
0.125833 -0.12551 -0.125786
0.128165 -0.127807 -0.0828008
0.129332 -0.128846 -0.0297707
0.129428 -0.128136 0.0298538
0.12829 -0.126896 0.0828281
0.125953 -0.124609 0.125777
0.12194 -0.120764 0.172608
0.124029 -0.0794993 -0.175992
0.128286 -0.0816969 -0.128081
0.130775 -0.0830118 -0.0841433
0.132011 -0.0837375 -0.0301568
0.132359 -0.0815979 0.0303856
0.131167 -0.0807846 0.0842261
0.128664 -0.0794946 0.128056
0.124375 -0.0775681 0.175914
0.125272 -0.0280524 -0.177259
0.129669 -0.0285609 -0.129161
0.132224 -0.0289097 -0.0847738
0.13345 -0.029598 -0.0303183
0.134077 -0.0262769 0.0306848
0.13283 -0.0261423 0.0849632
0.130227 -0.0257914 0.12916
0.125816 -0.0254703 0.177119
0.125536 0.0290688 -0.17718
0.129953 0.03016 -0.129086
0.132564 0.0308027 -0.0846818
0.133207 0.0303552 -0.0301962
0.137806 0.0368106 0.0307516
0.13609 0.0364436 0.0849768
0.133367 0.0357929 0.129088
0.12892 0.0345556 0.17687
0.125286 0.0800874 -0.17569
0.129638 0.0827347 -0.127645
0.13213 0.0844863 -0.0843537
0.136123 0.0846733 -0.0304818
0.122172 0.0928148 0.0305943
0.123733 0.092801 0.0843804
0.121076 0.09106 0.128137
0.117229 0.0882142 0.17636
0.122585 0.122467 -0.17145
0.127131 0.126626 -0.119835
0.134318 0.129155 -0.0674424
0.0998872 0.132519 -0.0114264
0.162605 0.116271 0.0184944
0.157668 0.128831 0.0738797
0.155748 0.125743 0.124533
0.150242 0.121865 0.167115
0.153759 0.16658 -0.159028
0.159666 0.174295 -0.118288
0.163407 0.176575 -0.0786593
0.163936 0.179276 -0.0279466
0.165289 0.175793 0.0290197
0.168166 0.173023 0.0789295
0.164909 0.170056 0.118991
0.158395 0.162698 0.15868
0.158431 -0.158346 -0.158427
0.164956 -0.164865 -0.118181
0.167917 -0.16782 -0.078245
0.169087 -0.168934 -0.0282516
0.169099 -0.168533 0.0282971
0.16793 -0.16734 0.0782526
0.164969 -0.164396 0.118173
0.158443 -0.157873 0.158424
0.164971 -0.115847 -0.164929
0.172655 -0.119382 -0.121754
0.176039 -0.121352 -0.0803313
0.177359 -0.12229 -0.0287266
0.177416 -0.11438 0.0292571
0.176095 -0.113389 0.080436
0.172705 -0.111542 0.121689
0.165019 -0.108143 0.164849
0.167937 -0.0652173 -0.167756
0.176038 -0.0670111 -0.123626
0.179656 -0.0678394 -0.0811957
0.181048 -0.0716861 -0.0282638
0.181062 -0.0408403 0.0300238
0.179658 -0.0420985 0.0816903
0.176041 -0.0414641 0.12335
0.167955 -0.0401339 0.16731
0.16908 -0.000840491 -0.168553
0.177314 -0.000885741 -0.124036
0.181003 -8.51296e-05 -0.0807204