# vtk DataFile Version 3.0
Molecular Dynamics Particle Data
ASCII
DATASET POLYDATA
POINTS 500 float
0.451785 0.451785 0.451785
0.449516 0.449516 0.581193
0.449039 0.449039 0.693834
0.44893 0.44893 0.79875
0.44893 0.44893 0.901249
0.449039 0.449039 1.00617
0.449516 0.449516 1.11881
0.451785 0.451785 1.24821
0.449516 0.581193 0.449516
0.446872 0.580273 0.580273
0.446318 0.579984 0.693452
0.446191 0.5799 0.798651
0.446191 0.5799 0.90135
0.446318 0.579984 1.00655
0.446872 0.580273 1.11973
0.449516 0.581193 1.25049
0.449039 0.693834 0.449039
0.446318 0.693452 0.579984
0.445735 0.693318 0.693318
0.4456 0.693275 0.798613
0.4456 0.693275 0.901385
0.445735 0.693318 1.00668
0.446318 0.693452 1.12002
0.449039 0.693834 1.25096
0.44893 0.79875 0.44893
0.446191 0.798651 0.5799
0.4456 0.798613 0.693275
0.445462 0.798601 0.798601
0.445462 0.798601 0.901398
0.4456 0.798613 1.00672
0.446191 0.798651 1.1201
0.44893 0.79875 1.25107
0.44893 0.901249 0.44893
0.446191 0.90135 0.5799
0.4456 0.901385 0.693275
0.445462 0.901398 0.798601
0.445462 0.901398 0.901398
0.4456 0.901385 1.00672
0.446191 0.90135 1.1201
0.44893 0.901249 1.25107
0.449039 1.00617 0.449039
0.446318 1.00655 0.579984
0.445735 1.00668 0.693318
0.4456 1.00672 0.798613
0.4456 1.00672 0.901385
0.445735 1.00668 1.00668
0.446318 1.00655 1.12002
0.449039 1.00617 1.25096
0.449516 1.11881 0.449516
0.446872 1.11973 0.580273
0.446318 1.12002 0.693452
0.446191 1.1201 0.798651
0.446191 1.1201 0.90135
0.446319 1.12002 1.00655
0.446873 1.11973 1.11973
0.449516 1.11881 1.25049
0.451786 1.24821 0.451785
0.449516 1.25049 0.581193
0.449039 1.25096 0.693834
0.448931 1.25107 0.79875
0.448931 1.25107 0.901249
0.449039 1.25096 1.00616
0.449516 1.25049 1.11881
0.451786 1.24821 1.24821
0.581193 0.449516 0.449516
0.580273 0.446872 0.580273
0.579984 0.446318 0.693452
0.5799 0.446191 0.798651
0.5799 0.446191 0.90135
0.579984 0.446318 1.00655
0.580273 0.446872 1.11973
0.581193 0.449516 1.25049
0.580273 0.580273 0.446872
0.579228 0.579228 0.579228
0.578894 0.578894 0.693016
0.578798 0.578798 0.798535
0.578798 0.578798 0.901465
0.578894 0.578894 1.00698
0.579228 0.579228 1.12077
0.580273 0.580273 1.25313
0.579984 0.693452 0.446318
0.578894 0.693016 0.578894
0.578543 0.692861 0.692861
0.578441 0.692811 0.798492
0.578441 0.692811 0.901508
0.578543 0.692861 1.00714
0.578894 0.693016 1.12111
0.579984 0.693452 1.25368
0.5799 0.798651 0.446191
0.578798 0.798535 0.578798
0.578441 0.798492 0.692811
0.578337 0.798478 0.798478
0.578337 0.798478 0.901523
0.578442 0.798492 1.00719
0.578798 0.798535 1.1212
0.5799 0.798651 1.25381
0.5799 0.90135 0.446191
0.578798 0.901465 0.578798
0.578442 0.901508 0.692811
0.578338 0.901523 0.798478
0.578338 0.901524 0.901523
0.578442 0.901509 1.00719
0.578799 0.901465 1.1212
0.579901 0.90135 1.25381
0.579984 1.00655 0.446318
0.578895 1.00698 0.578894
0.578544 1.00714 0.692861
0.578443 1.00719 0.798492
0.578445 1.00719 0.901509
0.578547 1.00714 1.00714
0.578898 1.00698 1.12111
0.579986 1.00655 1.25368
0.580275 1.11973 0.446872
0.579231 1.12077 0.579228
0.578898 1.12111 0.693016
0.578803 1.1212 0.798535
0.578813 1.1212 0.901466
0.578912 1.12111 1.00698
0.579243 1.12077 1.12077
0.580286 1.11973 1.25313
0.581204 1.25049 0.449516
0.580286 1.25313 0.580273
0.579998 1.25368 0.693453
0.579915 1.25381 0.798651
0.579916 1.25381 0.90135
0.58 1.25368 1.00655
0.580289 1.25313 1.11973
0.581206 1.25048 1.25048
0.693834 0.449039 0.449039
0.693452 0.446318 0.579984
0.693318 0.445735 0.693318
0.693275 0.4456 0.798613
0.693275 0.4456 0.901385
0.693318 0.445735 1.00668
0.693452 0.446318 1.12002
0.693834 0.449039 1.25096
0.693452 0.579984 0.446318
0.693016 0.578894 0.578894
0.692861 0.578543 0.692861
0.692811 0.578441 0.798492
0.692811 0.578441 0.901508
0.692861 0.578543 1.00714
0.693016 0.578894 1.12111
0.693452 0.579984 1.25368
0.693318 0.693318 0.445735
0.692861 0.692861 0.578543
0.692697 0.692697 0.692697
0.692644 0.692644 0.798446
0.692644 0.692644 0.901554
0.692697 0.692697 1.0073
0.692861 0.692861 1.12146
0.693319 0.693318 1.25426
0.693275 0.798613 0.4456
0.692811 0.798492 0.578441
0.692644 0.798446 0.692644
0.69259 0.798431 0.798431
0.69259 0.798431 0.901569
0.692645 0.798447 1.00736
0.692812 0.798492 1.12156
0.693276 0.798614 1.2544
0.693275 0.901386 0.4456
0.692812 0.901509 0.578441
0.692645 0.901555 0.692644
0.692592 0.901569 0.798431
0.692594 0.90157 0.901569
0.692649 0.901556 1.00736
0.692816 0.90151 1.12156
0.693279 0.901387 1.2544
0.693321 1.00668 0.445735
0.692866 1.00714 0.578543
0.692703 1.0073 0.692697
0.692655 1.00736 0.798447
0.692674 1.00736 0.901555
0.692731 1.00731 1.0073
0.692893 1.00714 1.12146
0.693345 1.00669 1.25426
0.693474 1.12002 0.446319
0.693043 1.12111 0.578895
0.692891 1.12146 0.692862
0.69286 1.12156 0.798498
0.693018 1.12156 0.901513
0.69308 1.12146 1.00714
0.693228 1.12111 1.1211
0.693645 1.12002 1.25368
0.694007 1.25096 0.449041
0.693642 1.25368 0.579986
0.693516 1.25426 0.69332
0.69348 1.2544 0.798615
0.693494 1.2544 0.901386
0.693537 1.25426 1.00668
0.693665 1.25368 1.12001
0.694025 1.25096 1.25096
0.79875 0.44893 0.44893
0.798651 0.446191 0.5799
0.798613 0.4456 0.693275
0.798601 0.445462 0.798601
0.798601 0.445462 0.901398
0.798613 0.4456 1.00672
0.798651 0.446191 1.1201
0.79875 0.44893 1.25107
0.798651 0.5799 0.446191
0.798535 0.578798 0.578798
0.798492 0.578441 0.692811
0.798478 0.578337 0.798478
0.798478 0.578337 0.901523
0.798492 0.578441 1.00719
0.798535 0.578798 1.1212
0.798651 0.5799 1.25381
0.798614 0.693275 0.4456
0.798492 0.692811 0.578441
0.798446 0.692644 0.692644
0.798431 0.69259 0.798431
0.798431 0.69259 0.901569
0.798447 0.692645 1.00736
0.798492 0.692812 1.12156
0.798614 0.693275 1.2544
0.798602 0.798602 0.445462
0.798478 0.798478 0.578337
0.798432 0.798432 0.692589
0.798417 0.798417 0.798415
0.798418 0.798418 0.901586
0.798435 0.798434 1.00741
0.798481 0.798481 1.12166
0.798604 0.798604 1.25454
0.798604 0.9014 0.445462
0.798481 0.901526 0.578337
0.798436 0.901571 0.69259
0.798423 0.90159 0.798416
0.798432 0.901595 0.901587
0.79845 0.90158 1.00741
0.798496 0.901534 1.12166
0.798616 0.901407 1.25454
0.798626 1.00673 0.445601
0.798509 1.0072 0.578442
0.798467 1.00736 0.692647
0.798471 1.00742 0.798437
0.798555 1.00744 0.901575
0.798589 1.00739 1.00736
0.79863 1.00722 1.12156
0.798727 1.00675 1.25439
0.798754 1.12012 0.446195
0.798661 1.12122 0.578802
0.798632 1.12158 0.692821
0.798692 1.12168 0.798513
0.799806 1.12169 0.901555
0.799872 1.12158 1.00719
0.799884 1.12122 1.12118
0.799904 1.12012 1.25379
0.79991 1.25107 0.448948
0.799893 1.25381 0.579917
0.79989 1.2544 0.693287
0.799903 1.25453 0.798609
0.799968 1.25452 0.9014
0.799985 1.25438 1.00672
0.799987 1.25379 1.12008
0.799989 1.25105 1.25105
0.901249 0.44893 0.44893
0.90135 0.446191 0.5799
0.901385 0.4456 0.693275
0.901398 0.445462 0.798601
0.901398 0.445462 0.901398
0.901385 0.4456 1.00672
0.90135 0.446191 1.1201
0.901249 0.448931 1.25107
0.90135 0.5799 0.446191
0.901465 0.578798 0.578798
0.901508 0.578442 0.692811
0.901524 0.578337 0.798478
0.901524 0.578338 0.901523
0.901509 0.578442 1.00719
0.901466 0.578799 1.1212
0.90135 0.579901 1.25381
0.901386 0.693275 0.4456
0.901509 0.692812 0.578441
0.901555 0.692645 0.692644
0.90157 0.692592 0.798431
0.901571 0.692593 0.901569
0.901556 0.692648 1.00736
0.90151 0.692815 1.12156
0.901387 0.693278 1.2544
0.9014 0.798604 0.445462
0.901526 0.798481 0.578337
0.901571 0.798435 0.69259
0.901591 0.798421 0.798416
0.901596 0.798429 0.901586
0.901582 0.798447 1.00741
0.901534 0.798492 1.12166
0.901408 0.798613 1.25453
0.901406 0.901406 0.445463
0.901532 0.901532 0.578339
0.901582 0.901581 0.692592
0.901603 0.901602 0.798419
0.901631 0.901632 0.901589
0.901621 0.901621 1.00741
0.901573 0.901572 1.12166
0.90144 0.90144 1.25453
0.901423 1.00675 0.445604
0.901554 1.00722 0.578446
0.901609 1.00739 0.692655
0.901662 1.00745 0.798453
0.901821 1.00756 0.90159
0.901847 1.00751 1.00736
0.901793 1.00734 1.12155
0.901615 1.00686 1.25438
0.901625 1.12017 0.446208
0.901798 1.12128 0.578815
0.901878 1.12165 0.692859
0.901967 1.12175 0.798639
0.906533 1.12177 0.901664
0.906602 1.12166 1.00719
0.906478 1.1213 1.12112
0.906118 1.12019 1.2537
0.905737 1.25107 0.449025
0.906053 1.25381 0.579977
0.906172 1.2544 0.693322
0.906242 1.25452 0.798631
0.906429 1.25444 0.901404
0.906427 1.25429 1.00669
0.906308 1.25371 1.12002
0.905954 1.25098 1.25096
1.00617 0.449039 0.449039
1.00655 0.446318 0.579984
1.00668 0.445735 0.693318
1.00672 0.4456 0.798613
1.00672 0.4456 0.901385
1.00668 0.445735 1.00668
1.00655 0.446319 1.12002
1.00617 0.449039 1.25096
1.00655 0.579984 0.446318
1.00698 0.578895 0.578894
1.00714 0.578544 0.692861
1.00719 0.578443 0.798492
1.00719 0.578444 0.901509
1.00714 0.578547 1.00714
1.00699 0.578898 1.12111
1.00655 0.579986 1.25368
1.00668 0.693321 0.445735
1.00714 0.692866 0.578543
1.00731 0.692703 0.692698
1.00736 0.692653 0.798447
1.00736 0.692664 0.901555
1.00731 0.69272 1.0073
1.00715 0.692883 1.12146
1.00669 0.693336 1.25426
1.00673 0.798626 0.445601
1.0072 0.798508 0.578442
1.00736 0.798466 0.692646
1.00742 0.79846 0.798435
1.00744 0.798502 0.901572
1.00739 0.798526 1.00736
1.00722 0.798569 1.12156
1.00675 0.798677 1.2544
1.00675 0.901422 0.445604
1.00722 0.901553 0.578446
1.00739 0.901605 0.692653
1.00745 0.901638 0.798444
1.00754 0.901771 0.90158
1.0075 0.901771 1.00736
1.00733 0.901718 1.12155
1.00684 0.901568 1.25439
1.00678 1.00678 0.445747
1.00725 1.00725 0.578562
1.00743 1.00742 0.692733
1.00752 1.0075 0.798499
1.00744 1.00787 0.901603
1.00744 1.00785 1.00732
1.00727 1.00766 1.12143
1.00674 1.00715 1.2542
1.00694 1.1203 0.446373
1.00749 1.12142 0.578965
1.00774 1.12179 0.693073
1.00731 1.1219 0.799096
1.02081 1.12189 0.90184
1.02067 1.1218 1.0072
1.02035 1.12143 1.12086
1.01942 1.12029 1.25321
1.01832 1.25096 0.449449
1.01914 1.25368 0.580246
1.01942 1.25426 0.693468
1.01955 1.25436 0.798704
1.01996 1.25403 0.90141
1.01995 1.25385 1.00659
1.01967 1.25329 1.11974
1.01877 1.25061 1.2505
1.11881 0.449516 0.449516
1.11973 0.446872 0.580273
1.12002 0.446318 0.693452
1.1201 0.446192 0.798651
1.1201 0.446192 0.90135
1.12002 0.446319 1.00655
1.11973 0.446873 1.11973
1.11881 0.449516 1.25049
1.11973 0.580275 0.446872
1.12077 0.579231 0.579228
1.12111 0.578898 0.693016
1.1212 0.578806 0.798536
1.1212 0.578817 0.901466
1.12111 0.578917 1.00698
1.12078 0.579249 1.12077
1.11973 0.58029 1.25313
1.12002 0.693474 0.446319
1.12111 0.693044 0.578895
1.12146 0.692893 0.692863
1.12157 0.692863 0.798498
1.12158 0.692953 0.901513
1.12148 0.69302 1.00714
1.12112 0.693171 1.1211
1.12003 0.693581 1.25368
1.12012 0.798755 0.446195
1.12122 0.798662 0.578803
1.12158 0.798632 0.692822
1.1217 0.798661 0.798499
1.12176 0.798954 0.901543
1.12166 0.799016 1.00719
1.1213 0.799046 1.12119
1.12019 0.799084 1.25379
1.12017 0.901625 0.44621
1.12129 0.901798 0.578818
1.12165 0.901867 0.692846
1.12178 0.901918 0.798536
1.12211 0.902484 0.901576
1.12203 0.902538 1.0072
1.12165 0.902474 1.12117
1.12051 0.902215 1.25374
1.1203 1.00694 0.446379
1.12143 1.00748 0.578989
1.12182 1.00768 0.693003
1.12199 1.00773 0.798623
1.12095 1.00902 0.901664
1.12094 1.00907 1.00721
1.12058 1.00888 1.12104
1.11945 1.00823 1.2535
1.12011 1.1201 0.447108
1.12131 1.12125 0.579674
1.12198 1.12163 0.6941
1.11987 1.12186 0.801081
1.15271 1.12156 0.901306
1.1524 1.12188 1.00742
1.15185 1.1215 1.12022
1.14958 1.12028 1.25085
1.14706 1.25076 0.451494
1.14905 1.25345 0.581138
1.14955 1.25395 0.693929
1.14977 1.25398 0.798887
1.15078 1.2524 0.901492
1.15097 1.25202 1.00637
1.15048 1.2515 1.1189
1.14822 1.24908 1.24825
1.24821 0.451785 0.451785
1.25049 0.449516 0.581193
1.25096 0.449039 0.693834
1.25107 0.448931 0.79875
1.25107 0.448934 0.901249
1.25096 0.449043 1.00617
1.25049 0.44952 1.11881
1.24821 0.451789 1.24821
1.25049 0.581204 0.449516
1.25313 0.580286 0.580273
1.25368 0.58 0.693454
1.25381 0.579929 0.798655
1.25381 0.580033 0.901354
1.25368 0.580126 1.00655
1.25313 0.580412 1.11973
1.25049 0.581319 1.25048
1.25096 0.694007 0.449041
1.25368 0.693644 0.579987
1.25426 0.693525 0.693327
1.2544 0.693556 0.798648
1.2544 0.694624 0.901417
1.25426 0.694718 1.00668
1.25368 0.694821 1.12
1.25096 0.695109 1.25094
1.25107 0.799911 0.448949
1.25381 0.799899 0.579924
1.2544 0.79992 0.693327
1.25454 0.799991 0.798765
1.25454 0.804694 0.90154
1.2544 0.804783 1.00672
1.25381 0.804715 1.12002
1.25107 0.804505 1.25096
1.25107 0.905739 0.449029
1.25381 0.906073 0.580017
1.2544 0.906275 0.693513
1.25454 0.905834 0.799215
1.25453 0.919194 0.901724
1.2544 0.919071 1.00677
1.25381 0.918816 1.11982
1.25107 0.918044 1.25057
1.25096 1.01833 0.449481
1.25368 1.01921 0.58057
1.25426 1.01981 0.6944
1.25448 1.01792 0.800966
1.25549 1.04835 0.901462
1.25552 1.0484 1.00707
1.25488 1.04794 1.11933
1.25199 1.0461 1.24863
1.25077 1.14706 0.451797
1.25349 1.14904 0.58571
1.25405 1.14947 0.712348
1.25543 1.15112 0.843344
VERTICES 500 1000
1 0
1 1
1 2
1 3
1 4
1 5
1 6
1 7
1 8
1 9
1 10
1 11
1 12
1 13
1 14
1 15
1 16
1 17
1 18
1 19
1 20
1 21
1 22
1 23
1 24
1 25
1 26
1 27
1 28
1 29
1 30
1 31
1 32
1 33
1 34
1 35
1 36
1 37
1 38
1 39
1 40
1 41
1 42
1 43
1 44
1 45
1 46
1 47
1 48
1 49
1 50
1 51
1 52
1 53
1 54
1 55
1 56
1 57
1 58
1 59
1 60
1 61
1 62
1 63
1 64
1 65
1 66
1 67
1 68
1 69
1 70
1 71
1 72
1 73
1 74
1 75
1 76
1 77
1 78
1 79
1 80
1 81
1 82
1 83
1 84
1 85
1 86
1 87
1 88
1 89
1 90
1 91
1 92
1 93
1 94
1 95
1 96
1 97
1 98
1 99
1 100
1 101
1 102
1 103
1 104
1 105
1 106
1 107
1 108
1 109
1 110
1 111
1 112
1 113
1 114
1 115
1 116
1 117
1 118
1 119
1 120
1 121
1 122
1 123
1 124
1 125
1 126
1 127
1 128
1 129
1 130
1 131
1 132
1 133
1 134
1 135
1 136
1 137
1 138
1 139
1 140
1 141
1 142
1 143
1 144
1 145
1 146
1 147
1 148
1 149
1 150
1 151
1 152
1 153
1 154
1 155
1 156
1 157
1 158
1 159
1 160
1 161
1 162
1 163
1 164
1 165
1 166
1 167
1 168
1 169
1 170
1 171
1 172
1 173
1 174
1 175
1 176
1 177
1 178
1 179
1 180
1 181
1 182
1 183
1 184
1 185
1 186
1 187
1 188
1 189
1 190
1 191
1 192
1 193
1 194
1 195
1 196
1 197
1 198
1 199
1 200
1 201
1 202
1 203
1 204
1 205
1 206
1 207
1 208
1 209
1 210
1 211
1 212
1 213
1 214
1 215
1 216
1 217
1 218
1 219
1 220
1 221
1 222
1 223
1 224
1 225
1 226
1 227
1 228
1 229
1 230
1 231
1 232
1 233
1 234
1 235
1 236
1 237
1 238
1 239
1 240
1 241
1 242
1 243
1 244
1 245
1 246
1 247
1 248
1 249
1 250
1 251
1 252
1 253
1 254
1 255
1 256
1 257
1 258
1 259
1 260
1 261
1 262
1 263
1 264
1 265
1 266
1 267
1 268
1 269
1 270
1 271
1 272
1 273
1 274
1 275
1 276
1 277
1 278
1 279
1 280
1 281
1 282
1 283
1 284
1 285
1 286
1 287
1 288
1 289
1 290
1 291
1 292
1 293
1 294
1 295
1 296
1 297
1 298
1 299
1 300
1 301
1 302
1 303
1 304
1 305
1 306
1 307
1 308
1 309
1 310
1 311
1 312
1 313
1 314
1 315
1 316
1 317
1 318
1 319
1 320
1 321
1 322
1 323
1 324
1 325
1 326
1 327
1 328
1 329
1 330
1 331
1 332
1 333
1 334
1 335
1 336
1 337
1 338
1 339
1 340
1 341
1 342
1 343
1 344
1 345
1 346
1 347
1 348
1 349
1 350
1 351
1 352
1 353
1 354
1 355
1 356
1 357
1 358
1 359
1 360
1 361
1 362
1 363
1 364
1 365
1 366
1 367
1 368
1 369
1 370
1 371
1 372
1 373
1 374
1 375
1 376
1 377
1 378
1 379
1 380
1 381
1 382
1 383
1 384
1 385
1 386
1 387
1 388
1 389
1 390
1 391
1 392
1 393
1 394
1 395
1 396
1 397
1 398
1 399
1 400
1 401
1 402
1 403
1 404
1 405
1 406
1 407
1 408
1 409
1 410
1 411
1 412
1 413
1 414
1 415
1 416
1 417
1 418
1 419
1 420
1 421
1 422
1 423
1 424
1 425
1 426
1 427
1 428
1 429
1 430
1 431
1 432
1 433
1 434
1 435
1 436
1 437
1 438
1 439
1 440
1 441
1 442
1 443
1 444
1 445
1 446
1 447
1 448
1 449
1 450
1 451
1 452
1 453
1 454
1 455
1 456
1 457
1 458
1 459
1 460
1 461
1 462
1 463
1 464
1 465
1 466
1 467
1 468
1 469
1 470
1 471
1 472
1 473
1 474
1 475
1 476
1 477
1 478
1 479
1 480
1 481
1 482
1 483
1 484
1 485
1 486
1 487
1 488
1 489
1 490
1 491
1 492
1 493
1 494
1 495
1 496
1 497
1 498
1 499
POINT_DATA 500
VECTORS velocity float
-0.143126 -0.143126 -0.143126
-0.149545 -0.149545 -0.0877695
-0.151734 -0.151734 -0.0441111
-0.152425 -0.152425 -0.012424
-0.152425 -0.152425 0.0124208
-0.151734 -0.151734 0.0441106
-0.149546 -0.149545 0.0877684
-0.143126 -0.143126 0.143126
-0.149545 -0.0877695 -0.149545
-0.157082 -0.0912239 -0.0912239
-0.159601 -0.0927699 -0.0461859
-0.160395 -0.0933791 -0.0131646
-0.160395 -0.093379 0.0131737
-0.159601 -0.0927699 0.0461802
-0.157081 -0.0912237 0.0912232
-0.149545 -0.0877696 0.149549
-0.151734 -0.0441111 -0.151734
-0.159601 -0.0461854 -0.0927699
-0.162276 -0.0471165 -0.0471169
-0.163124 -0.0474968 -0.0134967
-0.163124 -0.0474969 0.0134967
-0.162276 -0.0471167 0.0471114
-0.159601 -0.0461857 0.0927734
-0.151734 -0.0441106 0.151731
-0.152425 -0.012424 -0.152425
-0.160395 -0.0131654 -0.0933791
-0.163124 -0.0134967 -0.0474969
-0.163998 -0.0136261 -0.013626
-0.163998 -0.0136261 0.0136252
-0.163124 -0.0134966 0.0474965
-0.160395 -0.0131645 0.0933801
-0.152425 -0.0124239 0.152424
-0.152425 0.0124209 -0.152425
-0.160395 0.0131739 -0.0933791
-0.163124 0.0134972 -0.0474966
-0.163997 0.0136254 -0.0136264
-0.163997 0.0136256 0.0136252
-0.163124 0.0134972 0.0474966
-0.160395 0.0131738 0.09338
-0.152424 0.0124205 0.152424
-0.151733 0.0441108 -0.151734
-0.159601 0.0461804 -0.0927698
-0.162274 0.0471105 -0.0471167
-0.163123 0.0474966 -0.0134966
-0.163122 0.0474969 0.0134971
-0.162273 0.047111 0.0471105
-0.159599 0.0461806 0.0927741
-0.151732 0.0441111 0.15173
-0.149544 0.0877686 -0.149545
-0.15708 0.0912234 -0.0912236
-0.159599 0.0927746 -0.0461856
-0.160392 0.0933803 -0.0131643
-0.160389 0.0933802 0.0131738
-0.159594 0.0927745 0.0461796
-0.157076 0.0912233 0.0912234
-0.14954 0.0877688 0.149549
-0.143122 0.143126 -0.143126
-0.149541 0.149549 -0.0877694
-0.151728 0.151731 -0.0441107
-0.152419 0.152424 -0.0124245
-0.152418 0.152424 0.0124205
-0.151727 0.15173 0.044111
-0.149539 0.149549 0.0877692
-0.143121 0.143126 0.143126
-0.0877694 -0.149545 -0.149545
-0.0912236 -0.157082 -0.0912239
-0.0927698 -0.159601 -0.0461859
-0.093379 -0.160395 -0.0131646
-0.093379 -0.160395 0.0131737
-0.0927698 -0.159601 0.0461801
-0.0912236 -0.157082 0.0912232
-0.0877697 -0.149545 0.149549
-0.0912239 -0.0912238 -0.157082
-0.0950921 -0.0950921 -0.0950922
-0.0968436 -0.0968436 -0.0485049
-0.0975356 -0.0975356 -0.0140109
-0.0975356 -0.0975356 0.0140135
-0.0968437 -0.0968436 0.0485037
-0.0950919 -0.0950918 0.095093
-0.0912237 -0.0912237 0.157081
-0.0927696 -0.0461853 -0.159601
-0.0968435 -0.048505 -0.0968436
-0.0987032 -0.0495519 -0.0495522
-0.0994329 -0.0499792 -0.0143713
-0.0994328 -0.0499791 0.0143743
-0.0987028 -0.0495518 0.0495495
-0.0968436 -0.0485049 0.096844
-0.0927695 -0.0461853 0.159599
-0.0933785 -0.0131653 -0.160395
-0.0975354 -0.0140102 -0.0975358
-0.0994324 -0.0143709 -0.0499796
-0.100185 -0.0145233 -0.0145242
-0.100184 -0.0145228 0.0145297
-0.099431 -0.0143701 0.0499781
-0.0975341 -0.0140093 0.0975353
-0.0933778 -0.0131647 0.160396
-0.0933778 0.0131742 -0.160395
-0.0975342 0.0140142 -0.0975355
-0.0994307 0.0143752 -0.0499794
-0.100181 0.0145317 -0.0145232
-0.100177 0.0145333 0.0145295
-0.0994232 0.0143775 0.0499784
-0.0975275 0.0140164 0.0975351
-0.0933732 0.013176 0.160397
-0.0927638 0.0461815 -0.159601
-0.0968356 0.0485048 -0.0968433
-0.0986921 0.0495508 -0.049551
-0.0994141 0.0499809 -0.0143693
-0.0993889 0.0499848 0.0143761
-0.0986515 0.0495563 0.0495493
-0.0967955 0.0485106 0.0968423
-0.092731 0.0461867 0.159597
-0.0911934 0.0912264 -0.157081
-0.0950545 0.0950971 -0.0950912
-0.0967996 0.0968485 -0.0485021
-0.097466 0.0975392 -0.0140033
-0.0973087 0.0975405 0.014019
-0.0966022 0.0968482 0.0485028
-0.0948584 0.0950975 0.0950898
-0.0910117 0.0912265 0.157077
-0.0875808 0.149549 -0.149542
-0.0910146 0.157081 -0.0912205
-0.0925501 0.159599 -0.0461829
-0.0931484 0.160396 -0.0131624
-0.0931301 0.160395 0.0131742
-0.0925185 0.159595 0.0461777
-0.0909824 0.157078 0.09122
-0.0875542 0.149546 0.149545
-0.0441111 -0.151734 -0.151734
-0.0461858 -0.159601 -0.0927699
-0.0471169 -0.162276 -0.0471169
-0.047497 -0.163124 -0.0134967
-0.047497 -0.163124 0.0134967
-0.0471167 -0.162276 0.0471114
-0.0461856 -0.159601 0.0927734
-0.0441107 -0.151734 0.151731
-0.0461854 -0.0927697 -0.159601
-0.048505 -0.0968435 -0.0968436
-0.0495519 -0.0987032 -0.0495522
-0.0499792 -0.0994329 -0.0143713
-0.0499789 -0.0994328 0.0143743
-0.0495518 -0.098703 0.0495495
-0.0485042 -0.0968433 0.0968435
-0.0461853 -0.0927697 0.159599
-0.0471164 -0.0471164 -0.162276
-0.0495519 -0.0495518 -0.0987034
-0.0506514 -0.0506514 -0.0506525
-0.0511095 -0.0511094 -0.0147619
-0.0511092 -0.0511091 0.0147652
-0.0506492 -0.0506495 0.0506513
-0.0495496 -0.0495501 0.0987035
-0.0471148 -0.0471154 0.162272
-0.0474953 -0.0134957 -0.163124
-0.0499772 -0.0143702 -0.0994331
-0.0511081 -0.014761 -0.0511098
-0.0515728 -0.0149202 -0.0149216
-0.0515708 -0.0149172 0.0149221
-0.0511004 -0.0147562 0.05111
-0.0499694 -0.0143672 0.0994372
-0.0474872 -0.0134921 0.163122
-0.0474902 0.0134983 -0.163124
-0.0499705 0.0143783 -0.0994325
-0.0510981 0.0147721 -0.0511095
-0.0515568 0.0149296 -0.0149193
-0.0515338 0.01494 0.0149241
-0.051058 0.0147862 0.0511099
-0.0499268 0.0143962 0.0994354
-0.0474548 0.0135105 0.163119
-0.0470837 0.0471205 -0.162273
-0.0495098 0.0495603 -0.098701
-0.0505946 0.0506624 -0.0506446
-0.0509987 0.0511327 -0.0147477
-0.0507807 0.0511733 0.0147792
-0.0502764 0.0507198 0.0506505
-0.0491877 0.049614 0.0986961
-0.0468155 0.047169 0.162264
-0.0459355 0.0928 -0.159594
-0.0481997 0.0968743 -0.0968351
-0.0492047 0.0987395 -0.0495303
-0.0494248 0.0994725 -0.0143019
-0.0472301 0.0994746 0.0144406
-0.0466593 0.0987419 0.0495393
-0.045701 0.0968766 0.0968081
-0.0436003 0.0928009 0.159565
-0.0417279 0.151731 -0.151705
-0.0436161 0.159598 -0.0927369
-0.0444511 0.162272 -0.0470913
-0.0447521 0.163114 -0.0134798
-0.0445933 0.163089 0.013499
-0.044212 0.162237 0.0470912
-0.0433801 0.159565 0.0927359
-0.0415285 0.151701 0.151696
-0.012424 -0.152425 -0.152425
-0.0131648 -0.160395 -0.0933791
-0.0134966 -0.163124 -0.047497
-0.013626 -0.163998 -0.013626
-0.0136261 -0.163998 0.0136252
-0.0134966 -0.163124 0.0474965
-0.0131646 -0.160395 0.0933801
-0.0124236 -0.152425 0.152424
-0.0131653 -0.0933789 -0.160395
-0.0140102 -0.0975354 -0.0975358
-0.0143709 -0.0994324 -0.0499796
-0.0145229 -0.100185 -0.0145242
-0.0145222 -0.100185 0.0145304
-0.0143702 -0.0994318 0.049978
-0.0140089 -0.0975342 0.0975357
-0.0131642 -0.0933782 0.160397
-0.0134963 -0.0474957 -0.163124
-0.0143702 -0.0499772 -0.0994331
-0.0147608 -0.0511085 -0.0511098
-0.014919 -0.0515726 -0.0149217
-0.0149165 -0.05157 0.014922
-0.0147556 -0.0511027 0.0511097
-0.0143663 -0.0499708 0.0994372
-0.0134918 -0.0474898 0.163122
-0.0136204 -0.0136206 -0.163998
-0.0145168 -0.0145169 -0.100187
-0.0149153 -0.0149148 -0.051574
-0.0150674 -0.0150699 -0.015083
-0.0150516 -0.0150537 0.0150874
-0.0148835 -0.0148887 0.0515749
-0.0144942 -0.0144953 0.100187
-0.0136008 -0.0136009 0.163991
-0.0136038 0.0136395 -0.163996
-0.0144993 0.0145472 -0.100183
-0.0148823 0.0149407 -0.0515726
-0.015027 0.0151251 -0.0150727
-0.0149493 0.0151772 0.0150943
-0.0147693 0.0150217 0.051575
-0.0143811 0.0146293 0.100183
-0.0135094 0.0137066 0.163987
-0.0133865 0.0475304 -0.163119
-0.0142348 0.0500218 -0.0994232
-0.0145959 0.0511651 -0.0510871
-0.0146213 0.0516609 -0.014864
-0.0139907 0.0518759 0.0149724
-0.0137008 0.0514312 0.0511123
-0.0133506 0.0502785 0.099407
-0.0126563 0.0477598 0.163083
-0.0122882 0.0935147 -0.160365
-0.0129512 0.0976919 -0.0974989
-0.0132015 0.0995979 -0.0498761
-0.0129443 0.100363 -0.0141457
-0.00126009 0.10038 0.0148562
-0.000866138 0.0996237 0.0499352
-0.000795298 0.0977123 0.0973544
-0.000653923 0.0935379 0.160213
-0.000670399 0.152423 -0.152263
-0.000786413 0.160391 -0.0932034
-0.000812386 0.16311 -0.0473673
-0.000725041 0.163958 -0.0135439
-0.000195874 0.163823 0.0136228
-8.3732e-05 0.162932 0.0473851
-6.35932e-05 0.160217 0.093194
-4.83664e-05 0.15227 0.152238
0.0124208 -0.152425 -0.152425
0.0131739 -0.160395 -0.0933791
0.0134969 -0.163124 -0.0474971
0.0136255 -0.163997 -0.0136261
0.0136257 -0.163997 0.0136253
0.0134974 -0.163123 0.0474966
0.0131739 -0.160395 0.09338
0.0124207 -0.152424 0.152424
0.0131742 -0.0933777 -0.160395
0.0140142 -0.0975342 -0.0975355
0.0143752 -0.0994307 -0.0499793
0.0145322 -0.100182 -0.0145232
0.0145337 -0.100179 0.0145299
0.0143783 -0.099425 0.0499785
0.0140165 -0.0975292 0.0975353
0.0131756 -0.0933743 0.160397
0.0134988 -0.0474905 -0.163124
0.0143784 -0.0499706 -0.0994324
0.0147723 -0.0511005 -0.0511097
0.0149297 -0.0515618 -0.0149202
0.0149393 -0.0515434 0.0149233
0.0147831 -0.0510712 0.05111
0.0143939 -0.049942 0.0994357
0.013509 -0.0474646 0.16312
0.01364 -0.0136038 -0.163996
0.014548 -0.0145008 -0.100183
0.0149426 -0.0148842 -0.0515734
0.0151251 -0.0150307 -0.0150747
0.015165 -0.014953 0.0150926
0.0150172 -0.0147758 0.051575
0.0146147 -0.0143881 0.100183
0.013699 -0.0135133 0.163988
0.0136828 0.0136829 -0.163993
0.0145985 0.0145985 -0.100177
0.0150055 0.0150073 -0.0515638
0.0151915 0.0152013 -0.0150561
0.0153739 0.0154359 0.015105
0.015239 0.0153073 0.0515749
0.0148266 0.0148861 0.100174
0.0138843 0.0139383 0.163978
0.0137181 0.0476323 -0.163106
0.0146514 0.0501407 -0.0994003
0.0150792 0.051296 -0.0510317
0.0152966 0.0518142 -0.0148056
0.0152843 0.0524864 0.015023
0.0152444 0.0520579 0.0511402
0.0148325 0.050877 0.0993791
0.0137196 0.0483095 0.163018
0.0143243 0.0938066 -0.160299
0.0154516 0.0980139 -0.0974035
0.0160245 0.0999501 -0.0495596
0.0148452 0.100728 -0.0132988
0.0461968 0.10083 0.0154258
0.0454681 0.100079 0.0499635
0.0445923 0.0981418 0.0969542
0.0427783 0.0939163 0.159678
0.0404884 0.152426 -0.151788
0.0421381 0.160369 -0.0927794
0.0429243 0.163099 -0.0470729
0.0433349 0.163904 -0.013398
0.0442525 0.163369 0.0135895
0.044049 0.162437 0.0471594
0.0432397 0.159743 0.0927612
0.0414219 0.151855 0.151711
0.0441117 -0.151734 -0.151734
0.0461799 -0.1596 -0.0927698
0.0471117 -0.162274 -0.0471166
0.0474969 -0.163122 -0.0134965
0.0474973 -0.163122 0.0134972
0.047112 -0.162272 0.0471105
0.0461807 -0.159598 0.0927741
0.0441121 -0.151732 0.151731
0.0461816 -0.0927638 -0.159601
0.048505 -0.0968355 -0.0968432
0.0495511 -0.0986921 -0.0495508
0.0499822 -0.0994146 -0.0143695
0.0499868 -0.0993982 0.014376
0.0495609 -0.0986591 0.0495493
0.048514 -0.0968049 0.096842
0.0461884 -0.0927385 0.159597
0.0471202 -0.0470837 -0.162273
0.0495606 -0.0495101 -0.0987003
0.0506628 -0.0505989 -0.0506464
0.0511319 -0.0510282 -0.0147534
0.0511664 -0.050922 0.0147734
0.0507114 -0.0504454 0.0506511
0.0496073 -0.0493489 0.0986989
0.0471637 -0.0469522 0.162267
0.0475308 -0.0133874 -0.163118
0.0500214 -0.0142378 -0.0994228
0.0511651 -0.0146072 -0.0510956
0.0516551 -0.0147165 -0.014894
0.0517845 -0.0143496 0.0149454
0.0513367 -0.0141418 0.0511116
0.0501916 -0.0137859 0.0994192
0.0476813 -0.0129866 0.163099
0.0476329 0.0137171 -0.163104
0.0501437 0.0146455 -0.0994033
0.051297 0.0150582 -0.0510651
0.0517975 0.0152624 -0.0148595
0.0523429 0.0161407 0.0149659
0.0518972 0.0160266 0.0511137
0.0507299 0.0155924 0.0993971
0.0481935 0.0145888 0.163082
0.0475719 0.0475674 -0.162224
0.0500772 0.050062 -0.0985907
0.0512433 0.0512173 -0.0504659
0.051621 0.0516009 -0.0146789
0.0482102 0.0534433 0.0148715
0.0477974 0.0529696 0.0507309
0.0467058 0.0517713 0.0986536
0.044176 0.049188 0.1621
0.0463583 0.0939127 -0.15939
0.0489888 0.0980859 -0.0963903
0.0506238 0.100015 -0.0479725
0.0431472 0.100829 -0.0106997
0.101254 0.100259 0.0145707
0.0968225 0.0995697 0.0498808
0.095058 0.097639 0.0956374
0.0916211 0.0934132 0.157392
0.0864796 0.151606 -0.149787
0.0895901 0.159427 -0.0913046
0.0910785 0.162084 -0.0460817
0.0916531 0.162945 -0.013038
0.0928698 0.161395 0.0133911
0.0924204 0.160484 0.0463858
0.0908758 0.157902 0.0913271
0.0874932 0.150242 0.149594
0.0877682 -0.149544 -0.149545
0.0912235 -0.15708 -0.0912236
0.0927739 -0.159598 -0.046185
0.0933809 -0.16039 -0.0131643
0.0933818 -0.160385 0.0131742
0.092776 -0.159589 0.0461803
0.0912251 -0.15707 0.0912228
0.08777 -0.149536 0.149549
0.0912264 -0.0911934 -0.157081
0.0950977 -0.0950535 -0.0950905
0.0968494 -0.0967963 -0.0485001
0.0975461 -0.0974503 -0.0139997
0.0975637 -0.0973148 0.0140206
0.0968747 -0.0965915 0.0485037
0.0951233 -0.0948494 0.0950891
0.0912491 -0.0910201 0.157074
0.0927999 -0.0459348 -0.159594
0.0968757 -0.0481984 -0.0968327
0.0987436 -0.0492023 -0.049529
0.0994988 -0.0494842 -0.0143234
0.0996118 -0.0486426 0.0144195
0.0988957 -0.0480777 0.0495502
0.0970245 -0.0470792 0.0968177
0.0929267 -0.0449775 0.159562
0.0935153 -0.0122871 -0.160364
0.0976949 -0.0129492 -0.0974923
0.0996061 -0.0132331 -0.0499018
0.100413 -0.0132754 -0.0143912
0.100783 -0.0115007 0.0146412
0.100073 -0.0111703 0.0499858
0.0981333 -0.0108925 0.0974653
0.0939089 -0.0105125 0.160277
0.093808 0.0143252 -0.160292
0.0980239 0.0154397 -0.0974139
0.0999664 0.0159084 -0.0497885
0.10072 0.0158342 -0.0143122
0.102603 0.0183143 0.0147115
0.10185 0.0182106 0.0500028
0.0998314 0.0177393 0.0974075
0.0955137 0.0164487 0.160113
0.0939224 0.0463552 -0.159356
0.0981379 0.0489218 -0.0963637
0.100125 0.050127 -0.0491383
0.101314 0.0501733 -0.0143336
0.0934807 0.0569443 0.0146852
0.0932258 0.0566937 0.0496356
0.0913596 0.0554543 0.0967761
0.0875004 0.0526634 0.159473
0.0913106 0.0912625 -0.156388
0.0955852 0.0952647 -0.0924594
0.0992488 0.097185 -0.0421547
0.0817205 0.0987762 0.000618714
0.161145 0.0923021 0.00546452
0.154887 0.0953399 0.0476565
0.152581 0.0933266 0.0940706
0.146659 0.0891682 0.150716
0.140309 0.150369 -0.143833
0.145939 0.15806 -0.0877599
0.148277 0.160274 -0.0439822
0.148961 0.161441 -0.0123534
0.151259 0.157533 0.0128814
0.151851 0.156094 0.04491
0.149556 0.153813 0.0883024
0.143146 0.146755 0.143267
0.143126 -0.143122 -0.143126
0.149549 -0.149541 -0.0877693
0.151731 -0.151727 -0.0441101
0.152424 -0.152411 -0.0124204
0.152425 -0.152374 0.0124222
0.151732 -0.151678 0.0441115
0.14955 -0.14949 0.0877673
0.143127 -0.143077 0.143125
0.149549 -0.0875805 -0.149542
0.157081 -0.091012 -0.0912186
0.159599 -0.0925326 -0.0461695
0.160398 -0.0929947 -0.0131126
0.160403 -0.0916299 0.0132225
0.159604 -0.0909268 0.0461756
0.157085 -0.0894371 0.0912014
0.149553 -0.0861059 0.149525
0.151731 -0.0417266 -0.151704