# vtk DataFile Version 3.0
Molecular Dynamics Particle Data
ASCII
DATASET POLYDATA
POINTS 500 float
0.47837 0.47837 0.47837
0.477324 0.477324 0.595097
0.477191 0.477191 0.699262
0.477173 0.477173 0.799934
0.477173 0.477173 0.900065
0.477191 0.477191 1.00074
0.477324 0.477324 1.1049
0.47837 0.47837 1.22163
0.477324 0.595097 0.477324
0.476113 0.594795 0.594795
0.475957 0.594735 0.699193
0.475935 0.594725 0.799925
0.475935 0.594725 0.900075
0.475957 0.594735 1.00081
0.476113 0.594795 1.1052
0.477324 0.595097 1.22268
0.477191 0.699262 0.477191
0.475957 0.699193 0.594735
0.475794 0.699177 0.699177
0.475772 0.699174 0.799922
0.475772 0.699174 0.900077
0.475794 0.699177 1.00082
0.475957 0.699193 1.10526
0.477191 0.699262 1.22281
0.477173 0.799934 0.477173
0.475935 0.799925 0.594725
0.475772 0.799922 0.699174
0.475748 0.799922 0.799922
0.475748 0.799922 0.900078
0.475772 0.799922 1.00083
0.475935 0.799925 1.10527
0.477173 0.799934 1.22283
0.477173 0.900065 0.477173
0.475935 0.900075 0.594725
0.475772 0.900077 0.699174
0.475748 0.900078 0.799922
0.475748 0.900078 0.900078
0.475772 0.900077 1.00083
0.475935 0.900075 1.10527
0.477173 0.900065 1.22283
0.477191 1.00074 0.477191
0.475957 1.00081 0.594735
0.475794 1.00082 0.699177
0.475772 1.00083 0.799922
0.475772 1.00083 0.900077
0.475794 1.00082 1.00082
0.475957 1.00081 1.10526
0.477191 1.00074 1.22281
0.477324 1.1049 0.477324
0.476113 1.1052 0.594795
0.475957 1.10526 0.699193
0.475935 1.10527 0.799925
0.475935 1.10527 0.900075
0.475957 1.10526 1.00081
0.476113 1.1052 1.1052
0.477324 1.1049 1.22268
0.47837 1.22163 0.47837
0.477324 1.22268 0.595097
0.477191 1.22281 0.699262
0.477173 1.22283 0.799934
0.477173 1.22283 0.900065
0.477191 1.22281 1.00074
0.477324 1.22268 1.1049
0.47837 1.22163 1.22163
0.595097 0.477324 0.477324
0.594795 0.476113 0.594795
0.594735 0.475957 0.699193
0.594725 0.475935 0.799925
0.594725 0.475935 0.900075
0.594735 0.475957 1.00081
0.594795 0.476113 1.1052
0.595097 0.477324 1.22268
0.594795 0.594795 0.476113
0.594447 0.594447 0.594447
0.594375 0.594375 0.699112
0.594363 0.594363 0.799914
0.594363 0.594363 0.900086
0.594375 0.594375 1.00089
0.594447 0.594447 1.10555
0.594795 0.594795 1.22389
0.594735 0.699193 0.475957
0.594375 0.699112 0.594375
0.5943 0.699092 0.699092
0.594288 0.699088 0.799911
0.594288 0.699088 0.900089
0.5943 0.699092 1.00091
0.594375 0.699112 1.10562
0.594735 0.699193 1.22404
0.594725 0.799925 0.475935
0.594363 0.799914 0.594363
0.594288 0.799911 0.699088
0.594275 0.79991 0.79991
0.594275 0.79991 0.90009
0.594288 0.799911 1.00091
0.594363 0.799914 1.10564
0.594725 0.799925 1.22406
0.594725 0.900075 0.475935
0.594363 0.900086 0.594363
0.594288 0.900089 0.699088
0.594275 0.90009 0.79991
0.594275 0.90009 0.90009
0.594288 0.900089 1.00091
0.594363 0.900086 1.10564
0.594725 0.900075 1.22406
0.594735 1.00081 0.475957
0.594375 1.00089 0.594375
0.5943 1.00091 0.699092
0.594288 1.00091 0.799911
0.594288 1.00091 0.900089
0.594301 1.00091 1.00091
0.594375 1.00089 1.10562
0.594735 1.00081 1.22404
0.594795 1.1052 0.476113
0.594447 1.10555 0.594447
0.594375 1.10562 0.699112
0.594364 1.10564 0.799914
0.594364 1.10564 0.900086
0.594376 1.10562 1.00089
0.594447 1.10555 1.10555
0.594795 1.1052 1.22389
0.595097 1.22268 0.477324
0.594795 1.22389 0.594795
0.594735 1.22404 0.699193
0.594726 1.22406 0.799925
0.594726 1.22407 0.900075
0.594735 1.22404 1.00081
0.594796 1.22389 1.1052
0.595097 1.22268 1.22268
0.699262 0.477191 0.477191
0.699193 0.475957 0.594735
0.699177 0.475794 0.699177
0.699174 0.475772 0.799922
0.699174 0.475772 0.900077
0.699177 0.475794 1.00082
0.699193 0.475957 1.10526
0.699262 0.477191 1.22281
0.699193 0.594735 0.475957
0.699112 0.594375 0.594375
0.699092 0.5943 0.699092
0.699088 0.594288 0.799911
0.699088 0.594288 0.900089
0.699092 0.5943 1.00091
0.699112 0.594375 1.10562
0.699193 0.594735 1.22404
0.699177 0.699177 0.475794
0.699092 0.699092 0.5943
0.699071 0.699071 0.699071
0.699067 0.699067 0.799907
0.699067 0.699067 0.900092
0.699071 0.699071 1.00093
0.699092 0.699092 1.1057
0.699177 0.699177 1.22421
0.699174 0.799923 0.475772
0.699088 0.799911 0.594288
0.699067 0.799907 0.699067
0.699063 0.799907 0.799906
0.699063 0.799907 0.900093
0.699067 0.799907 1.00093
0.699088 0.799911 1.10571
0.699174 0.799923 1.22423
0.699174 0.900077 0.475772
0.699088 0.900089 0.594288
0.699067 0.900092 0.699067
0.699063 0.900093 0.799906
0.699064 0.900093 0.900093
0.699068 0.900093 1.00093
0.699089 0.900089 1.10571
0.699174 0.900077 1.22423
0.699177 1.00082 0.475794
0.699093 1.00091 0.5943
0.699072 1.00093 0.699071
0.699068 1.00093 0.799907
0.699069 1.00093 0.900092
0.699073 1.00093 1.00093
0.699094 1.00091 1.1057
0.699178 1.00082 1.22421
0.699194 1.10526 0.475957
0.699113 1.10562 0.594375
0.699094 1.1057 0.699093
0.69909 1.10571 0.799911
0.699094 1.10571 0.900089
0.699098 1.1057 1.00091
0.699118 1.10562 1.10562
0.699198 1.10526 1.22404
0.699265 1.22281 0.477191
0.699198 1.22404 0.594735
0.699182 1.22421 0.699177
0.699179 1.22423 0.799923
0.699179 1.22423 0.900077
0.699183 1.22421 1.00082
0.699199 1.22404 1.10526
0.699266 1.22281 1.22281
0.799934 0.477173 0.477173
0.799925 0.475935 0.594725
0.799922 0.475772 0.699174
0.799922 0.475748 0.799922
0.799922 0.475748 0.900078
0.799922 0.475772 1.00083
0.799925 0.475935 1.10527
0.799934 0.477173 1.22283
0.799925 0.594725 0.475935
0.799914 0.594363 0.594363
0.799911 0.594288 0.699088
0.79991 0.594275 0.79991
0.79991 0.594275 0.90009
0.799911 0.594288 1.00091
0.799914 0.594363 1.10564
0.799925 0.594725 1.22407
0.799922 0.699174 0.475772
0.799911 0.699088 0.594288
0.799907 0.699067 0.699067
0.799907 0.699063 0.799906
0.799907 0.699063 0.900093
0.799907 0.699067 1.00093
0.799911 0.699088 1.10571
0.799923 0.699174 1.22423
0.799922 0.799922 0.475748
0.79991 0.79991 0.594275
0.799907 0.799907 0.699063
0.799906 0.799906 0.799906
0.799906 0.799906 0.900094
0.799907 0.799907 1.00094
0.79991 0.79991 1.10572
0.799922 0.799922 1.22425
0.799922 0.900078 0.475748
0.79991 0.90009 0.594275
0.799907 0.900093 0.699063
0.799907 0.900095 0.799906
0.799908 0.900095 0.900094
0.799909 0.900094 1.00094
0.799912 0.900091 1.10572
0.799924 0.900078 1.22425
0.799924 1.00083 0.475772
0.799912 1.00091 0.594288
0.79991 1.00093 0.699068
0.799911 1.00094 0.799907
0.799918 1.00094 0.900094
0.79992 1.00094 1.00093
0.799924 1.00092 1.10571
0.799933 1.00083 1.22423
0.799933 1.10528 0.475936
0.799924 1.10564 0.594364
0.799923 1.10571 0.699089
0.799929 1.10573 0.799912
0.799979 1.10573 0.900092
0.799985 1.10571 1.00091
0.799987 1.10564 1.10564
0.79999 1.10528 1.22406
0.799991 1.22283 0.477175
0.799988 1.22406 0.594726
0.799988 1.22423 0.699174
0.79999 1.22425 0.799923
0.799995 1.22425 0.900078
0.799997 1.22423 1.00083
0.799999 1.22406 1.10527
0.8 1.22282 1.22282
0.900065 0.477173 0.477173
0.900075 0.475935 0.594725
0.900077 0.475772 0.699174
0.900078 0.475748 0.799922
0.900078 0.475748 0.900078
0.900077 0.475772 1.00083
0.900075 0.475935 1.10527
0.900065 0.477173 1.22283
0.900075 0.594725 0.475935
0.900086 0.594363 0.594363
0.900089 0.594288 0.699088
0.90009 0.594275 0.79991
0.90009 0.594275 0.90009
0.900089 0.594288 1.00091
0.900086 0.594363 1.10564
0.900075 0.594725 1.22407
0.900077 0.699174 0.475772
0.900089 0.699088 0.594288
0.900092 0.699067 0.699067
0.900093 0.699063 0.799907
0.900093 0.699064 0.900093
0.900093 0.699068 1.00093
0.900089 0.699089 1.10571
0.900077 0.699174 1.22423
0.900078 0.799922 0.475748
0.90009 0.79991 0.594275
0.900093 0.799907 0.699063
0.900095 0.799907 0.799906
0.900095 0.799907 0.900094
0.900095 0.799908 1.00094
0.900091 0.799912 1.10572
0.900079 0.799923 1.22425
0.900079 0.900079 0.475748
0.900091 0.900091 0.594275
0.900095 0.900095 0.699064
0.900098 0.900097 0.799906
0.900102 0.9001 0.900095
0.900103 0.9001 1.00094
0.900099 0.900096 1.10572
0.900085 0.900083 1.22425
0.900084 1.00083 0.475772
0.900098 1.00092 0.594289
0.900103 1.00094 0.699069
0.900115 1.00095 0.799911
0.900162 1.00096 0.900097
0.900173 1.00096 1.00093
0.900168 1.00094 1.10571
0.900143 1.00085 1.22422
0.900132 1.10529 0.475939
0.900155 1.10565 0.594366
0.900165 1.10573 0.699093
0.900213 1.10574 0.799929
0.900783 1.10574 0.900108
0.900823 1.10573 1.00091
0.90081 1.10565 1.10563
0.900742 1.10529 1.22405
0.900679 1.22283 0.477188
0.900735 1.22406 0.594733
0.90075 1.22423 0.699178
0.900762 1.22425 0.799926
0.900801 1.22424 0.900081
0.900809 1.22421 1.00082
0.900794 1.22405 1.10527
0.900729 1.22281 1.22281
1.00074 0.477191 0.477191
1.00081 0.475957 0.594735
1.00082 0.475794 0.699177
1.00083 0.475772 0.799922
1.00083 0.475772 0.900077
1.00082 0.475794 1.00082
1.00081 0.475957 1.10526
1.00074 0.477191 1.22281
1.00081 0.594735 0.475957
1.00089 0.594375 0.594375
1.00091 0.5943 0.699092
1.00091 0.594288 0.799911
1.00091 0.594288 0.900089
1.00091 0.594301 1.00091
1.00089 0.594376 1.10562
1.00081 0.594735 1.22404
1.00082 0.699177 0.475794
1.00091 0.699093 0.5943
1.00093 0.699072 0.699071
1.00093 0.699068 0.799907
1.00093 0.699069 0.900093
1.00093 0.699074 1.00093
1.00091 0.699094 1.1057
1.00082 0.699178 1.22421
1.00083 0.799924 0.475772
1.00091 0.799912 0.594288
1.00093 0.79991 0.699068
1.00094 0.799911 0.799907
1.00094 0.799916 0.900094
1.00094 0.799918 1.00093
1.00092 0.799921 1.10571
1.00083 0.799931 1.22423
1.00083 0.900084 0.475773
1.00092 0.900098 0.594289
1.00094 0.900103 0.699069
1.00095 0.900109 0.79991
1.00097 0.900132 0.900097
1.00097 0.900136 1.00093
1.00095 0.900132 1.10571
1.00085 0.900113 1.22422
1.00085 1.00085 0.475798
1.00094 1.00094 0.594304
1.00097 1.00096 0.699079
1.001 1.00098 0.79993
1.00117 1.00108 0.900113
1.0012 1.00109 1.00093
1.00118 1.00107 1.10569
1.00105 1.00096 1.22418
1.00103 1.10536 0.475976
1.00116 1.10573 0.594389
1.0012 1.10581 0.699122
1.00136 1.10582 0.800041
1.0052 1.10583 0.900217
1.00535 1.10582 1.00092
1.00529 1.10574 1.10557
1.00499 1.10537 1.22391
1.00468 1.22281 0.477301
1.00495 1.22405 0.594787
1.00501 1.22421 0.699196
1.00505 1.22422 0.799946
1.00522 1.22412 0.900095
1.00524 1.22409 1.00082
1.00519 1.22393 1.10521
1.00489 1.22271 1.22268
1.1049 0.477324 0.477324
1.1052 0.476113 0.594795
1.10526 0.475957 0.699193
1.10527 0.475935 0.799925
1.10527 0.475935 0.900075
1.10526 0.475957 1.00081
1.1052 0.476113 1.1052
1.1049 0.477324 1.22268
1.1052 0.594795 0.476113
1.10555 0.594447 0.594447
1.10562 0.594376 0.699112
1.10564 0.594364 0.799914
1.10564 0.594364 0.900086
1.10562 0.594376 1.00089
1.10555 0.594448 1.10555
1.1052 0.594796 1.22389
1.10526 0.699194 0.475957
1.10562 0.699113 0.594375
1.1057 0.699094 0.699093
1.10571 0.699093 0.799911
1.10571 0.699098 0.90009
1.1057 0.699104 1.00091
1.10563 0.699123 1.10562
1.10527 0.699202 1.22404
1.10528 0.799933 0.475936
1.10564 0.799925 0.594364
1.10571 0.799924 0.69909
1.10573 0.799935 0.799914
1.10574 0.799982 0.900093
1.10573 0.799993 1.00091
1.10565 0.799995 1.10564
1.10529 0.799992 1.22406
1.10529 0.900132 0.475939
1.10565 0.900156 0.594367
1.10573 0.900167 0.699096
1.10576 0.900203 0.799931
1.10584 0.900404 0.900109
1.10584 0.900441 1.00092
1.10576 0.900433 1.10563
1.10538 0.90037 1.22404
1.10536 1.00103 0.475977
1.10573 1.00116 0.594396
1.10582 1.0012 0.699144
1.10588 1.00124 0.800007
1.10595 1.00165 0.90019
1.10599 1.00171 1.00094
1.10592 1.00169 1.10559
1.10549 1.00149 1.22392
1.10558 1.10558 0.47623
1.10601 1.106 0.594538
1.10617 1.10609 0.69938
1.10618 1.10613 0.800578
1.12289 1.10639 0.900761
1.1233 1.10643 1.0011
1.12315 1.10634 1.1053
1.12208 1.10589 1.22284
1.12098 1.2228 0.478224
1.1219 1.22403 0.595061
1.12203 1.22417 0.699303
1.12213 1.22409 0.800042
1.1227 1.22328 0.900203
1.1228 1.22313 1.0008
1.12267 1.22298 1.10492
1.12163 1.22189 1.22164
1.22163 0.47837 0.47837
1.22268 0.477324 0.595097
1.22281 0.477191 0.699262
1.22283 0.477173 0.799934
1.22283 0.477173 0.900065
1.22281 0.477191 1.00074
1.22268 0.477324 1.1049
1.22163 0.47837 1.22163
1.22268 0.595097 0.477324
1.22389 0.594795 0.594795
1.22404 0.594735 0.699193
1.22407 0.594726 0.799925
1.22407 0.594728 0.900075
1.22404 0.594738 1.00081
1.22389 0.594799 1.1052
1.22268 0.5951 1.22268
1.22281 0.699265 0.477191
1.22404 0.699198 0.594735
1.22421 0.699182 0.699177
1.22423 0.699186 0.799924
1.22423 0.699235 0.900079
1.22421 0.699244 1.00082
1.22404 0.69926 1.10526
1.22281 0.69932 1.22281
1.22283 0.799991 0.477175
1.22406 0.799989 0.594727
1.22423 0.799993 0.699178
1.22425 0.800039 0.799941
1.22425 0.800618 0.900096
1.22423 0.800659 1.00083
1.22406 0.800652 1.10527
1.22283 0.800607 1.22281
1.22283 0.900679 0.477188
1.22406 0.900737 0.594738
1.22423 0.900769 0.699204
1.22425 0.900923 0.800053
1.22426 0.904792 0.900207
1.22423 0.904946 1.00084
1.22407 0.904903 1.10522
1.22283 0.904649 1.2227
1.22281 1.00469 0.477304
1.22405 1.00496 0.594834
1.22421 1.00509 0.699443
1.22427 1.0051 0.800564
1.22445 1.02138 0.900764
1.22447 1.02181 1.00103
1.2243 1.02168 1.10501
1.22303 1.0208 1.22181
1.2228 1.12098 0.478246
1.22403 1.12189 0.59563
1.22419 1.12202 0.703739
1.22441 1.12224 0.820038
VERTICES 500 1000
1 0
1 1
1 2
1 3
1 4
1 5
1 6
1 7
1 8
1 9
1 10
1 11
1 12
1 13
1 14
1 15
1 16
1 17
1 18
1 19
1 20
1 21
1 22
1 23
1 24
1 25
1 26
1 27
1 28
1 29
1 30
1 31
1 32
1 33
1 34
1 35
1 36
1 37
1 38
1 39
1 40
1 41
1 42
1 43
1 44
1 45
1 46
1 47
1 48
1 49
1 50
1 51
1 52
1 53
1 54
1 55
1 56
1 57
1 58
1 59
1 60
1 61
1 62
1 63
1 64
1 65
1 66
1 67
1 68
1 69
1 70
1 71
1 72
1 73
1 74
1 75
1 76
1 77
1 78
1 79
1 80
1 81
1 82
1 83
1 84
1 85
1 86
1 87
1 88
1 89
1 90
1 91
1 92
1 93
1 94
1 95
1 96
1 97
1 98
1 99
1 100
1 101
1 102
1 103
1 104
1 105
1 106
1 107
1 108
1 109
1 110
1 111
1 112
1 113
1 114
1 115
1 116
1 117
1 118
1 119
1 120
1 121
1 122
1 123
1 124
1 125
1 126
1 127
1 128
1 129
1 130
1 131
1 132
1 133
1 134
1 135
1 136
1 137
1 138
1 139
1 140
1 141
1 142
1 143
1 144
1 145
1 146
1 147
1 148
1 149
1 150
1 151
1 152
1 153
1 154
1 155
1 156
1 157
1 158
1 159
1 160
1 161
1 162
1 163
1 164
1 165
1 166
1 167
1 168
1 169
1 170
1 171
1 172
1 173
1 174
1 175
1 176
1 177
1 178
1 179
1 180
1 181
1 182
1 183
1 184
1 185
1 186
1 187
1 188
1 189
1 190
1 191
1 192
1 193
1 194
1 195
1 196
1 197
1 198
1 199
1 200
1 201
1 202
1 203
1 204
1 205
1 206
1 207
1 208
1 209
1 210
1 211
1 212
1 213
1 214
1 215
1 216
1 217
1 218
1 219
1 220
1 221
1 222
1 223
1 224
1 225
1 226
1 227
1 228
1 229
1 230
1 231
1 232
1 233
1 234
1 235
1 236
1 237
1 238
1 239
1 240
1 241
1 242
1 243
1 244
1 245
1 246
1 247
1 248
1 249
1 250
1 251
1 252
1 253
1 254
1 255
1 256
1 257
1 258
1 259
1 260
1 261
1 262
1 263
1 264
1 265
1 266
1 267
1 268
1 269
1 270
1 271
1 272
1 273
1 274
1 275
1 276
1 277
1 278
1 279
1 280
1 281
1 282
1 283
1 284
1 285
1 286
1 287
1 288
1 289
1 290
1 291
1 292
1 293
1 294
1 295
1 296
1 297
1 298
1 299
1 300
1 301
1 302
1 303
1 304
1 305
1 306
1 307
1 308
1 309
1 310
1 311
1 312
1 313
1 314
1 315
1 316
1 317
1 318
1 319
1 320
1 321
1 322
1 323
1 324
1 325
1 326
1 327
1 328
1 329
1 330
1 331
1 332
1 333
1 334
1 335
1 336
1 337
1 338
1 339
1 340
1 341
1 342
1 343
1 344
1 345
1 346
1 347
1 348
1 349
1 350
1 351
1 352
1 353
1 354
1 355
1 356
1 357
1 358
1 359
1 360
1 361
1 362
1 363
1 364
1 365
1 366
1 367
1 368
1 369
1 370
1 371
1 372
1 373
1 374
1 375
1 376
1 377
1 378
1 379
1 380
1 381
1 382
1 383
1 384
1 385
1 386
1 387
1 388
1 389
1 390
1 391
1 392
1 393
1 394
1 395
1 396
1 397
1 398
1 399
1 400
1 401
1 402
1 403
1 404
1 405
1 406
1 407
1 408
1 409
1 410
1 411
1 412
1 413
1 414
1 415
1 416
1 417
1 418
1 419
1 420
1 421
1 422
1 423
1 424
1 425
1 426
1 427
1 428
1 429
1 430
1 431
1 432
1 433
1 434
1 435
1 436
1 437
1 438
1 439
1 440
1 441
1 442
1 443
1 444
1 445
1 446
1 447
1 448
1 449
1 450
1 451
1 452
1 453
1 454
1 455
1 456
1 457
1 458
1 459
1 460
1 461
1 462
1 463
1 464
1 465
1 466
1 467
1 468
1 469
1 470
1 471
1 472
1 473
1 474
1 475
1 476
1 477
1 478
1 479
1 480
1 481
1 482
1 483
1 484
1 485
1 486
1 487
1 488
1 489
1 490
1 491
1 492
1 493
1 494
1 495
1 496
1 497
1 498
1 499
POINT_DATA 500
VECTORS velocity float
-0.119444 -0.119444 -0.119444
-0.125081 -0.125081 -0.0478856
-0.12627 -0.12627 -0.0114273
-0.126494 -0.126494 -0.00136799
-0.126494 -0.126495 0.0013648
-0.12627 -0.12627 0.0114264
-0.125081 -0.125081 0.0478867
-0.119444 -0.119444 0.119444
-0.125081 -0.0478856 -0.125081
-0.131658 -0.0503985 -0.0503985
-0.133041 -0.0510829 -0.0123157
-0.133307 -0.0512311 -0.00152403
-0.133307 -0.0512311 0.00152525
-0.133041 -0.0510828 0.0123204
-0.131658 -0.0503983 0.0503936
-0.125081 -0.0478853 0.125084
-0.12627 -0.0114273 -0.12627
-0.133041 -0.0123156 -0.0510829
-0.134488 -0.0125675 -0.0125675
-0.13477 -0.0126213 -0.00157022
-0.13477 -0.0126214 0.00156673
-0.134488 -0.0125677 0.012568
-0.133041 -0.0123157 0.0510854
-0.12627 -0.0114277 0.126267
-0.126494 -0.00136796 -0.126494
-0.133307 -0.00152408 -0.0512311
-0.13477 -0.00156998 -0.0126214
-0.135056 -0.00158108 -0.00158101
-0.135056 -0.00158104 0.00157936
-0.13477 -0.00156989 0.0126224
-0.133307 -0.00152404 0.0512326
-0.126495 -0.00136772 0.126493
-0.126494 0.00136483 -0.126494
-0.133307 0.00152536 -0.051231
-0.13477 0.00156728 -0.0126214
-0.135056 0.00157946 -0.00158099
-0.135056 0.00157944 0.00157932
-0.13477 0.00156721 0.0126224
-0.133307 0.00152535 0.0512326
-0.126494 0.00136492 0.126493
-0.12627 0.0114264 -0.12627
-0.13304 0.0123203 -0.0510828
-0.134488 0.0125669 -0.0125677
-0.13477 0.0126224 -0.00156992
-0.13477 0.0126225 0.00156717
-0.134488 0.0125671 0.012567
-0.13304 0.0123204 0.0510861
-0.12627 0.0114263 0.126266
-0.125081 0.0478868 -0.125081
-0.131658 0.0503936 -0.0503983
-0.13304 0.0510862 -0.0123157
-0.133306 0.0512325 -0.00152404
-0.133306 0.0512326 0.00152531
-0.13304 0.0510862 0.0123203
-0.131658 0.0503935 0.0503934
-0.125081 0.0478868 0.125084
-0.119444 0.119444 -0.119444
-0.125081 0.125084 -0.0478853
-0.12627 0.126267 -0.0114276
-0.126494 0.126493 -0.00136774
-0.126494 0.126493 0.00136418
-0.126269 0.126266 0.0114275
-0.125081 0.125084 0.0478861
-0.119444 0.119444 0.119444
-0.0478856 -0.125081 -0.125081
-0.0503984 -0.131658 -0.0503985
-0.0510828 -0.133041 -0.0123157
-0.0512311 -0.133307 -0.00152402
-0.0512311 -0.133307 0.00152525
-0.0510828 -0.133041 0.0123204
-0.0503982 -0.131658 0.0503936
-0.0478854 -0.125081 0.125084
-0.0503985 -0.0503985 -0.131658
-0.053251 -0.053251 -0.0532511
-0.0540473 -0.0540473 -0.0133558
-0.0542235 -0.0542235 -0.00171226
-0.0542235 -0.0542235 0.00171343
-0.0540473 -0.0540473 0.0133561
-0.0532507 -0.0532508 0.0532515
-0.0503984 -0.0503984 0.131657
-0.0510828 -0.0123156 -0.133041
-0.0540473 -0.0133557 -0.0540473
-0.0548852 -0.0136506 -0.0136506
-0.0550678 -0.0137166 -0.00176865
-0.0550677 -0.0137165 0.00176901
-0.054885 -0.0136505 0.0136525
-0.0540472 -0.0133557 0.0540466
-0.0510829 -0.0123156 0.13304
-0.051231 -0.00152408 -0.133307
-0.0542234 -0.00171216 -0.0542235
-0.0550677 -0.00176828 -0.013717
-0.0552552 -0.00178216 -0.00178189
-0.0552552 -0.00178209 0.00178359
-0.0550677 -0.00176809 0.0137203
-0.0542229 -0.00171186 0.0542201
-0.0512307 -0.00152405 0.133307
-0.0512307 0.0015254 -0.133307
-0.0542233 0.00171353 -0.0542235
-0.0550677 0.00176875 -0.0137166
-0.0552552 0.00178403 -0.00178231
-0.0552551 0.00178419 0.00178368
-0.0550668 0.00176875 0.0137205
-0.0542225 0.00171328 0.0542201
-0.0512298 0.00152561 0.133307
-0.0510818 0.0123205 -0.133041
-0.0540466 0.0133563 -0.0540473
-0.0548839 0.0136529 -0.0136504
-0.0550664 0.0137214 -0.00176839
-0.0550651 0.0137213 0.00176896
-0.0548813 0.013653 0.0136524
-0.054044 0.0133569 0.0540464
-0.0510799 0.0123207 0.133039
-0.050396 0.0503938 -0.131658
-0.0532488 0.0532516 -0.0532507
-0.0540444 0.0540468 -0.0133556
-0.0542194 0.0542193 -0.00171173
-0.0542153 0.05422 0.00171325
-0.0540386 0.0540467 0.0133561
-0.0532428 0.0532516 0.0532515
-0.0503909 0.0503937 0.131656
-0.0478793 0.125084 -0.125081
-0.0503917 0.131657 -0.0503981
-0.0510757 0.13304 -0.0123156
-0.0512242 0.133307 -0.001524
-0.0512238 0.133307 0.00152547
-0.0510739 0.133039 0.0123205
-0.0503893 0.131656 0.0503933
-0.0478783 0.125084 0.125084
-0.0114273 -0.12627 -0.12627
-0.0123155 -0.133041 -0.0510829
-0.0125675 -0.134488 -0.0125675
-0.0126214 -0.13477 -0.00157022
-0.0126214 -0.13477 0.00156674
-0.0125677 -0.134488 0.012568
-0.0123155 -0.133041 0.0510854
-0.0114277 -0.12627 0.126267
-0.0123157 -0.0510828 -0.133041
-0.0133557 -0.0540473 -0.0540473
-0.0136506 -0.0548852 -0.0136506
-0.0137166 -0.0550678 -0.00176865
-0.0137165 -0.0550677 0.00176901
-0.0136505 -0.0548851 0.0136526
-0.0133554 -0.0540475 0.0540464
-0.0123157 -0.0510829 0.13304
-0.0125673 -0.012567 -0.134488
-0.0136505 -0.0136505 -0.0548852
-0.013961 -0.013961 -0.0139611
-0.0140341 -0.0140341 -0.00182994
-0.0140341 -0.0140341 0.00182954
-0.013961 -0.013961 0.013963
-0.0136502 -0.0136499 0.0548857
-0.0125669 -0.0125669 0.134485
-0.012621 -0.00157032 -0.13477
-0.0137163 -0.00176811 -0.0550679
-0.0140337 -0.00182938 -0.0140343
-0.0141066 -0.00184215 -0.00184222
-0.014106 -0.00184164 0.00184111
-0.0140325 -0.00182867 0.0140352
-0.0137149 -0.00176749 0.0550729
-0.0126204 -0.00156991 0.134766
-0.0126209 0.00156758 -0.13477
-0.013715 0.00176908 -0.0550677
-0.014032 0.00183011 -0.0140343
-0.0141033 0.00184209 -0.00184192
-0.0141008 0.00184241 0.00184137
-0.0140274 0.00183116 0.0140353
-0.0137091 0.00177009 0.0550725
-0.0126171 0.00156857 0.134766
-0.0125638 0.012568 -0.134488
-0.013645 0.0136547 -0.0548849
-0.0139531 0.013965 -0.0139601
-0.0140205 0.0140378 -0.00182843
-0.0140063 0.0140398 0.00183055
-0.0139293 0.0139678 0.0139631
-0.0136193 0.0136578 0.0548848
-0.0125437 0.0125707 0.134484
-0.012298 0.0510881 -0.13304
-0.0133299 0.0540482 -0.0540468
-0.0136217 0.0548882 -0.0136488
-0.0136728 0.0550752 -0.00176475
-0.0135946 0.0550753 0.0017713
-0.0135158 0.0548886 0.0136527
-0.0132243 0.0540483 0.0540441
-0.0122054 0.0510881 0.133037
-0.0113362 0.126266 -0.126268
-0.0122084 0.133039 -0.0510809
-0.012454 0.134485 -0.0125662
-0.0125009 0.134766 -0.00156952
-0.012488 0.134764 0.00156796
-0.0124312 0.134482 0.0125675
-0.0121857 0.133037 0.0510833
-0.0113164 0.126265 0.126264
-0.00136801 -0.126494 -0.126494
-0.00152415 -0.133307 -0.0512312
-0.0015702 -0.13477 -0.0126214
-0.001581 -0.135056 -0.001581
-0.00158104 -0.135056 0.00157936
-0.0015699 -0.13477 0.0126225
-0.00152421 -0.133307 0.0512326
-0.00136774 -0.126495 0.126493
-0.0015241 -0.0512311 -0.133307
-0.00171219 -0.0542234 -0.0542235
-0.00176829 -0.0550677 -0.013717
-0.00178213 -0.0552552 -0.00178188
-0.00178206 -0.0552553 0.0017836
-0.00176807 -0.0550678 0.0137206
-0.00171218 -0.0542229 0.0542205
-0.00152398 -0.0512306 0.133307
-0.00157002 -0.012621 -0.13477
-0.00176811 -0.0137163 -0.0550678
-0.00182935 -0.0140339 -0.0140343
-0.00184172 -0.0141067 -0.00184224
-0.00184157 -0.0141063 0.00184111
-0.0018283 -0.0140331 0.0140353
-0.00176725 -0.0137152 0.0550728
-0.00156922 -0.0126208 0.134766
-0.00157971 -0.00158013 -0.135056
-0.00178081 -0.00178083 -0.0552554
-0.0018408 -0.00184102 -0.0141074
-0.00185329 -0.00185401 -0.00185538
-0.00185191 -0.00185237 0.00185868
-0.00183684 -0.0018383 0.0141048
-0.00177697 -0.00177802 0.0552586
-0.00157561 -0.00157728 0.135052
-0.00157675 0.00158193 -0.135056
-0.00177703 0.00178614 -0.0552552
-0.00183439 0.00184538 -0.0141059
-0.00184265 0.00186491 -0.00185404
-0.00182943 0.00187117 0.00186029
-0.00181046 0.00185697 0.0141049
-0.00175183 0.00179683 0.0552575
-0.0015567 0.00159078 0.135051
-0.00155041 0.012628 -0.134768
-0.00174175 0.01373 -0.0550662
-0.00179516 0.0140452 -0.0140301
-0.00177387 0.0141225 -0.00183321
-0.00165183 0.014147 0.00185002
-0.00160751 0.0140795 0.0140366
-0.00155253 0.0137655 0.0550669
-0.00139388 0.0126567 0.134758
-0.00137833 0.0512538 -0.1333
-0.00153346 0.0542457 -0.0542181
-0.00156711 0.0550981 -0.0137055
-0.00145632 0.0552846 -0.0017457
-0.000345522 0.0552855 0.00181863
-0.000229526 0.0550999 0.0137204
-0.000207983 0.0542452 0.0541999
-0.000170457 0.0512549 0.133278
-0.000152204 0.126492 -0.126471
-0.000185249 0.133306 -0.0512123
-0.000191075 0.134764 -0.012613
-0.000165525 0.135046 -0.00157132
-7.04706e-05 0.135028 0.00158338
-4.21217e-05 0.134737 0.0126189
-3.48936e-05 0.133279 0.0512119
-2.78075e-05 0.12647 0.126464
0.00136479 -0.126494 -0.126494
0.00152506 -0.133307 -0.0512313
0.00156677 -0.13477 -0.0126214
0.00157942 -0.135056 -0.00158106
0.00157947 -0.135056 0.00157939
0.00156723 -0.13477 0.0126224
0.00152515 -0.133307 0.0512326
0.00136493 -0.126494 0.126493
0.00152537 -0.0512308 -0.133307
0.00171352 -0.0542233 -0.0542235
0.00176878 -0.0550677 -0.0137165
0.00178428 -0.0552553 -0.00178229
0.00178437 -0.0552552 0.00178372
0.00176895 -0.0550666 0.0137209
0.00171375 -0.0542224 0.0542204
0.00152563 -0.05123 0.133307
0.00156737 -0.0126209 -0.13477
0.00176912 -0.013715 -0.0550677
0.0018302 -0.0140321 -0.014034
0.00184251 -0.0141033 -0.00184228
0.00184347 -0.0141009 0.00184169
0.00183254 -0.014028 0.0140354
0.00177117 -0.01371 0.0550725
0.00156952 -0.0126176 0.134766
0.00158207 -0.00157677 -0.135056
0.00178628 -0.00177705 -0.0552551
0.00184498 -0.00183612 -0.0141058
0.00186728 -0.00184556 -0.00185461
0.00187403 -0.00183825 0.00186042
0.00186373 -0.00182082 0.0141052
0.00180111 -0.0017614 0.0552573
0.00159306 -0.00156312 0.135051
0.00159223 0.00159212 -0.135054
0.00179978 0.00179874 -0.0552537
0.00186682 0.00186544 -0.0141015
0.00189661 0.00188869 -0.00184806
0.00195329 0.00193552 0.0018659
0.00195457 0.00193254 0.0141064
0.00189258 0.00186761 0.0552538
0.00166516 0.00164769 0.135045
0.00164472 0.0126667 -0.134762
0.00186701 0.0137726 -0.0550607
0.00195046 0.0140988 -0.014011
0.00209201 0.0142074 -0.00179023
0.00268094 0.0144095 0.00189168
0.00279191 0.0143684 0.0140419
0.00271211 0.0140358 0.0550477
0.00235922 0.0128993 0.134721
0.00224724 0.051392 -0.133268
0.002578 0.0544085 -0.0541916
0.00271952 0.0552657 -0.0136475
0.00330518 0.0554551 -0.00149862
0.0121662 0.0554708 0.00205906
0.0126098 0.0552819 0.0137208
0.012392 0.0544269 0.0540844
0.0115106 0.0514069 0.133085
0.0106815 0.126495 -0.126307
0.0114397 0.1333 -0.0510998
0.0116655 0.134762 -0.0125616
0.0118144 0.135016 -0.00152965
0.0122888 0.134865 0.00161066
0.0123491 0.13455 0.0125846
0.012124 0.133094 0.0510914
0.0112672 0.126313 0.126272
0.011427 -0.12627 -0.12627
0.0123204 -0.13304 -0.0510828
0.0125681 -0.134488 -0.0125677
0.0126225 -0.13477 -0.0015699
0.0126225 -0.13477 0.0015672
0.0125672 -0.134487 0.012567
0.0123204 -0.13304 0.0510861
0.0114269 -0.126269 0.126267
0.0123205 -0.0510819 -0.133041
0.0133563 -0.0540466 -0.0540473
0.013653 -0.0548839 -0.0136503
0.0137215 -0.0550654 -0.00176828
0.0137219 -0.0550641 0.00176911
0.0136545 -0.054879 0.0136525
0.0133574 -0.0540426 0.0540463
0.0123217 -0.0510787 0.133039
0.0125679 -0.0125638 -0.134488
0.0136549 -0.0136449 -0.0548849
0.0139656 -0.0139523 -0.0139595
0.0140393 -0.014019 -0.00182819
0.0140441 -0.0140042 0.00183089
0.0139715 -0.0139284 0.0139635
0.0136627 -0.0136174 0.0548848
0.0125746 -0.0125435 0.134483
0.0126278 -0.00155035 -0.134768
0.0137305 -0.00174156 -0.0550653
0.0140488 -0.00179703 -0.0140291
0.0141309 -0.0017889 -0.00183535
0.014163 -0.00172604 0.00184916
0.0141013 -0.00169264 0.0140373
0.0137804 -0.00163696 0.0550677
0.0126749 -0.00146277 0.134758
0.0126669 0.00164392 -0.134761
0.0137743 0.00186576 -0.0550597
0.014103 0.00194306 -0.0140116
0.0142134 0.00200332 -0.00181257
0.0143913 0.00226247 0.00186971
0.0143609 0.00229691 0.0140417
0.0140307 0.00222088 0.0550553
0.012891 0.00195006 0.134738
0.0128005 0.0128 -0.134458
0.013937 0.0139293 -0.0548447
0.0142989 0.0142634 -0.0138801
0.0145299 0.0144341 -0.00165236
0.0151396 0.0153594 0.00198183
0.015273 0.0153746 0.0140005
0.0149302 0.0150203 0.0548051
0.013589 0.0137879 0.13432
0.0137568 0.051823 -0.132897
0.0150928 0.0548787 -0.0539015
0.0156053 0.0557561 -0.0132663
0.0159957 0.0559641 -0.000452473
0.0518559 0.0560724 0.00295783
0.0524591 0.0559037 0.0137936
0.0517407 0.055024 0.0534346
0.0491829 0.0519405 0.131873
0.0464636 0.126307 -0.125256
0.0487123 0.133068 -0.050472
0.0493729 0.134502 -0.0122854
0.0496902 0.134675 -0.0013508
0.0508682 0.133839 0.00168619
0.0509448 0.133439 0.0124042
0.0502815 0.132022 0.0504352
0.0478085 0.12538 0.125114
0.0478866 -0.125081 -0.125081
0.0503936 -0.131658 -0.0503983
0.0510855 -0.13304 -0.0123156
0.0512326 -0.133306 -0.0015241
0.0512327 -0.133306 0.00152543
0.0510864 -0.133039 0.0123203
0.0503937 -0.131657 0.0503934
0.0478868 -0.12508 0.125084
0.0503938 -0.0503961 -0.131658
0.0532519 -0.0532486 -0.0532506
0.054047 -0.0540433 -0.0133548
0.0542208 -0.0542151 -0.0017114
0.0542219 -0.0542065 0.00171396
0.0540487 -0.0540255 0.0133561
0.0532541 -0.0532308 0.0532514
0.050395 -0.0503816 0.131656
0.0510881 -0.0122979 -0.13304
0.0540487 -0.0133296 -0.054046
0.054889 -0.0136175 -0.0136469
0.0550803 -0.0136512 -0.00176069
0.0550969 -0.0135381 0.00177638
0.0549144 -0.0134465 0.0136538
0.0540737 -0.0131543 0.0540424
0.0511075 -0.0121573 0.133032
0.0512539 -0.00137769 -0.133299
0.0542463 -0.00153168 -0.0542155
0.0551009 -0.00156051 -0.0136964
0.0553144 -0.00144281 -0.00173634
0.0554503 -0.000802926 0.00182679
0.0552877 -0.000659095 0.0137272
0.0544329 -0.000628832 0.0541987
0.0514121 -0.000602611 0.133264
0.0513925 0.00224731 -0.133265
0.0544125 0.0025817 -0.0541808
0.0552813 0.00270738 -0.0136411
0.0555558 0.00291352 -0.00161655
0.0562725 0.00439615 0.00192566
0.0561608 0.00462605 0.0137451
0.0552791 0.00451626 0.0541463
0.0521748 0.00391031 0.133138
0.0518261 0.0137569 -0.132887
0.0549005 0.0150859 -0.0538189
0.0558355 0.0154991 -0.0132394
0.0559669 0.0154817 -0.00146186
0.0530274 0.0175187 0.00207582
0.0528822 0.0176172 0.0139047
0.0520496 0.017246 0.0538327
0.0490294 0.0157149 0.132595
0.0506728 0.0506626 -0.131126
0.0538493 0.0537224 -0.0522702
0.0553862 0.0546207 -0.0109325
0.051017 0.0550428 0.00281252
0.131343 0.0555351 0.00244592
0.130919 0.055981 0.0152068
0.129439 0.0550833 0.05145
0.123693 0.0518235 0.125948
0.117001 0.125879 -0.120163
0.121969 0.132566 -0.0480786
0.1232 0.133821 -0.0111159
0.123682 0.133812 -0.00104583
0.12591 0.129922 0.00197828
0.126299 0.129028 0.0119558
0.125095 0.127733 0.0480791
0.119468 0.12171 0.119529
0.119444 -0.119444 -0.119444
0.125084 -0.125081 -0.0478853
0.126267 -0.12627 -0.0114276