# vtk DataFile Version 3.0
Molecular Dynamics Particle Data
ASCII
DATASET POLYDATA
POINTS 500 float
0.489248 0.489248 0.489248
0.48872 0.48872 0.598623
0.488677 0.488677 0.699896
0.488673 0.488673 0.799995
0.488673 0.488673 0.900005
0.488677 0.488677 1.0001
0.48872 0.48872 1.10138
0.489248 0.489248 1.21075
0.48872 0.598623 0.48872
0.488113 0.598522 0.598522
0.488061 0.598507 0.699883
0.488056 0.598506 0.799993
0.488056 0.598506 0.900006
0.488061 0.598507 1.00012
0.488113 0.598522 1.10148
0.48872 0.598623 1.21128
0.488677 0.699896 0.488677
0.488061 0.699883 0.598507
0.488008 0.69988 0.69988
0.488003 0.69988 0.799993
0.488003 0.69988 0.900007
0.488008 0.69988 1.00012
0.488061 0.699883 1.10149
0.488677 0.699896 1.21132
0.488673 0.799995 0.488673
0.488056 0.799993 0.598506
0.488003 0.799993 0.69988
0.487997 0.799993 0.799993
0.487997 0.799993 0.900007
0.488003 0.799993 1.00012
0.488056 0.799993 1.10149
0.488673 0.799995 1.21133
0.488673 0.900005 0.488673
0.488056 0.900006 0.598506
0.488003 0.900007 0.69988
0.487997 0.900007 0.799993
0.487997 0.900007 0.900007
0.488003 0.900007 1.00012
0.488056 0.900006 1.10149
0.488673 0.900005 1.21133
0.488677 1.0001 0.488677
0.488061 1.00012 0.598507
0.488008 1.00012 0.69988
0.488003 1.00012 0.799993
0.488003 1.00012 0.900007
0.488008 1.00012 1.00012
0.488061 1.00012 1.10149
0.488677 1.0001 1.21132
0.48872 1.10138 0.48872
0.488113 1.10148 0.598522
0.488061 1.10149 0.699883
0.488056 1.10149 0.799993
0.488056 1.10149 0.900006
0.488061 1.10149 1.00012
0.488113 1.10148 1.10148
0.48872 1.10138 1.21128
0.489248 1.21075 0.489248
0.48872 1.21128 0.598623
0.488677 1.21132 0.699896
0.488673 1.21133 0.799995
0.488673 1.21133 0.900005
0.488677 1.21132 1.0001
0.48872 1.21128 1.10138
0.489248 1.21075 1.21075
0.598623 0.48872 0.48872
0.598522 0.488113 0.598522
0.598507 0.488061 0.699883
0.598506 0.488056 0.799993
0.598506 0.488056 0.900006
0.598507 0.488061 1.00012
0.598522 0.488113 1.10148
0.598623 0.48872 1.21128
0.598522 0.598522 0.488113
0.598403 0.598403 0.598403
0.598386 0.598386 0.699867
0.598384 0.598384 0.799992
0.598384 0.598384 0.900008
0.598386 0.598386 1.00013
0.598403 0.598403 1.1016
0.598522 0.598522 1.21189
0.598507 0.699883 0.488061
0.598386 0.699867 0.598386
0.598367 0.699863 0.699863
0.598365 0.699863 0.799991
0.598365 0.699863 0.900009
0.598367 0.699863 1.00014
0.598386 0.699867 1.10161
0.598507 0.699883 1.21194
0.598506 0.799993 0.488056
0.598384 0.799992 0.598384
0.598365 0.799991 0.699863
0.598362 0.799991 0.799991
0.598362 0.799991 0.900009
0.598365 0.799991 1.00014
0.598384 0.799992 1.10162
0.598506 0.799993 1.21194
0.598506 0.900006 0.488056
0.598384 0.900008 0.598384
0.598365 0.900009 0.699863
0.598362 0.900009 0.799991
0.598362 0.900009 0.900009
0.598365 0.900009 1.00014
0.598384 0.900008 1.10162
0.598506 0.900006 1.21194
0.598507 1.00012 0.488061
0.598386 1.00013 0.598386
0.598367 1.00014 0.699863
0.598365 1.00014 0.799991
0.598365 1.00014 0.900009
0.598367 1.00014 1.00014
0.598386 1.00013 1.10161
0.598507 1.00012 1.21194
0.598522 1.10148 0.488113
0.598403 1.1016 0.598403
0.598386 1.10161 0.699867
0.598384 1.10162 0.799992
0.598384 1.10162 0.900008
0.598386 1.10161 1.00013
0.598403 1.1016 1.1016
0.598522 1.10148 1.21189
0.598623 1.21128 0.48872
0.598522 1.21189 0.598522
0.598507 1.21194 0.699883
0.598506 1.21194 0.799993
0.598506 1.21194 0.900006
0.598507 1.21194 1.00012
0.598522 1.21189 1.10148
0.598623 1.21128 1.21128
0.699896 0.488677 0.488677
0.699883 0.488061 0.598507
0.69988 0.488008 0.69988
0.69988 0.488003 0.799993
0.69988 0.488003 0.900007
0.69988 0.488008 1.00012
0.699883 0.488061 1.10149
0.699896 0.488677 1.21132
0.699883 0.598507 0.488061
0.699867 0.598386 0.598386
0.699863 0.598367 0.699863
0.699863 0.598365 0.799991
0.699863 0.598365 0.900009
0.699863 0.598367 1.00014
0.699867 0.598386 1.10161
0.699883 0.598507 1.21194
0.69988 0.69988 0.488008
0.699863 0.699863 0.598367
0.69986 0.69986 0.69986
0.699859 0.699859 0.799991
0.699859 0.699859 0.900009
0.69986 0.69986 1.00014
0.699863 0.699863 1.10163
0.69988 0.69988 1.21199
0.69988 0.799993 0.488003
0.699863 0.799991 0.598365
0.699859 0.799991 0.699859
0.699859 0.799991 0.799991
0.699859 0.799991 0.900009
0.699859 0.799991 1.00014
0.699863 0.799991 1.10163
0.69988 0.799993 1.212
0.69988 0.900007 0.488003
0.699863 0.900009 0.598365
0.699859 0.900009 0.699859
0.699859 0.900009 0.799991
0.699859 0.900009 0.900009
0.699859 0.900009 1.00014
0.699863 0.900009 1.10163
0.69988 0.900007 1.212
0.69988 1.00012 0.488008
0.699863 1.00014 0.598367
0.69986 1.00014 0.69986
0.699859 1.00014 0.799991
0.699859 1.00014 0.900009
0.69986 1.00014 1.00014
0.699864 1.00014 1.10163
0.69988 1.00012 1.21199
0.699883 1.10149 0.488061
0.699867 1.10161 0.598386
0.699864 1.10163 0.699863
0.699863 1.10163 0.799991
0.699863 1.10163 0.900009
0.699864 1.10163 1.00014
0.699867 1.10161 1.10161
0.699883 1.10149 1.21194
0.699896 1.21132 0.488677
0.699883 1.21194 0.598507
0.699881 1.21199 0.69988
0.69988 1.212 0.799993
0.69988 1.212 0.900007
0.699881 1.21199 1.00012
0.699883 1.21194 1.10149
0.699896 1.21132 1.21132
0.799995 0.488673 0.488673
0.799993 0.488056 0.598506
0.799993 0.488003 0.69988
0.799993 0.487997 0.799993
0.799993 0.487997 0.900007
0.799993 0.488003 1.00012
0.799993 0.488056 1.10149
0.799995 0.488673 1.21133
0.799993 0.598506 0.488056
0.799992 0.598384 0.598384
0.799991 0.598365 0.699863
0.799991 0.598362 0.799991
0.799991 0.598362 0.900009
0.799991 0.598365 1.00014
0.799992 0.598384 1.10162
0.799993 0.598506 1.21194
0.799993 0.69988 0.488003
0.799991 0.699863 0.598365
0.799991 0.699859 0.699859
0.799991 0.699859 0.799991
0.799991 0.699859 0.900009
0.799991 0.699859 1.00014
0.799991 0.699863 1.10163
0.799993 0.69988 1.212
0.799993 0.799993 0.487997
0.799991 0.799991 0.598362
0.799991 0.799991 0.699859
0.799991 0.799991 0.79999
0.799991 0.799991 0.900009
0.799991 0.799991 1.00014
0.799991 0.799991 1.10164
0.799993 0.799993 1.212
0.799993 0.900007 0.487997
0.799991 0.900009 0.598362
0.799991 0.900009 0.699859
0.799991 0.900009 0.79999
0.799991 0.90001 0.900009
0.799991 0.900009 1.00014
0.799992 0.900009 1.10164
0.799993 0.900007 1.212
0.799993 1.00012 0.488003
0.799992 1.00014 0.598365
0.799991 1.00014 0.699859
0.799991 1.00014 0.799991
0.799992 1.00014 0.900009
0.799993 1.00014 1.00014
0.799993 1.00014 1.10163
0.799995 1.00012 1.212
0.799995 1.10149 0.488057
0.799993 1.10162 0.598384
0.799993 1.10163 0.699863
0.799994 1.10164 0.799991
0.799997 1.10164 0.900009
0.799998 1.10163 1.00014
0.799998 1.10162 1.10162
0.799999 1.10149 1.21194
0.799999 1.21133 0.488673
0.799999 1.21194 0.598506
0.799999 1.212 0.69988
0.799999 1.212 0.799993
0.8 1.212 0.900007
0.8 1.212 1.00012
0.8 1.21194 1.10149
0.8 1.21133 1.21133
0.900005 0.488673 0.488673
0.900006 0.488056 0.598506
0.900007 0.488003 0.69988
0.900007 0.487997 0.799993
0.900007 0.487997 0.900007
0.900007 0.488003 1.00012
0.900006 0.488056 1.10149
0.900005 0.488673 1.21133
0.900006 0.598506 0.488056
0.900008 0.598384 0.598384
0.900009 0.598365 0.699863
0.900009 0.598362 0.799991
0.900009 0.598362 0.900009
0.900009 0.598365 1.00014
0.900008 0.598384 1.10162
0.900006 0.598506 1.21194
0.900007 0.69988 0.488003
0.900009 0.699863 0.598365
0.900009 0.699859 0.699859
0.900009 0.699859 0.799991
0.900009 0.699859 0.900009
0.900009 0.699859 1.00014
0.900009 0.699863 1.10163
0.900007 0.69988 1.212
0.900007 0.799993 0.487997
0.900009 0.799991 0.598362
0.900009 0.799991 0.699859
0.90001 0.799991 0.799991
0.90001 0.799991 0.900009
0.90001 0.799991 1.00014
0.900009 0.799992 1.10164
0.900007 0.799993 1.212
0.900007 0.900007 0.487998
0.900009 0.900009 0.598362
0.90001 0.90001 0.699859
0.90001 0.90001 0.799991
0.900011 0.900011 0.90001
0.900012 0.900011 1.00014
0.900011 0.90001 1.10164
0.900009 0.900008 1.212
0.900008 1.00012 0.488003
0.900011 1.00014 0.598365
0.900012 1.00014 0.699859
0.900015 1.00014 0.799992
0.900024 1.00015 0.90001
0.900026 1.00015 1.00014
0.900025 1.00014 1.10163
0.90002 1.00012 1.212
0.900018 1.1015 0.488057
0.900022 1.10162 0.598384
0.900025 1.10164 0.699864
0.900033 1.10164 0.799994
0.90011 1.10164 0.900012
0.900118 1.10164 1.00014
0.900116 1.10162 1.10162
0.900103 1.1015 1.21194
0.900091 1.21133 0.488676
0.900101 1.21194 0.598507
0.900104 1.212 0.69988
0.900106 1.212 0.799994
0.900114 1.212 0.900008
0.900116 1.21199 1.00012
0.900114 1.21194 1.10149
0.900102 1.21132 1.21132
1.0001 0.488677 0.488677
1.00012 0.488061 0.598507
1.00012 0.488008 0.69988
1.00012 0.488003 0.799993
1.00012 0.488003 0.900007
1.00012 0.488008 1.00012
1.00012 0.488061 1.10149
1.0001 0.488677 1.21132
1.00012 0.598507 0.488061
1.00013 0.598386 0.598386
1.00014 0.598367 0.699863
1.00014 0.598365 0.799991
1.00014 0.598365 0.900009
1.00014 0.598367 1.00014
1.00013 0.598386 1.10161
1.00012 0.598507 1.21194
1.00012 0.69988 0.488008
1.00014 0.699863 0.598367
1.00014 0.69986 0.69986
1.00014 0.699859 0.799991
1.00014 0.699859 0.900009
1.00014 0.69986 1.00014
1.00014 0.699864 1.10163
1.00012 0.699881 1.21199
1.00012 0.799993 0.488003
1.00014 0.799992 0.598365
1.00014 0.799991 0.699859
1.00014 0.799992 0.799991
1.00014 0.799993 0.900009
1.00014 0.799993 1.00014
1.00014 0.799994 1.10163
1.00012 0.799995 1.212
1.00012 0.900008 0.488003
1.00014 0.900011 0.598365
1.00014 0.900012 0.69986
1.00015 0.900014 0.799992
1.00015 0.90002 0.900011
1.00015 0.900022 1.00014
1.00015 0.900021 1.10163
1.00013 0.900017 1.212
1.00013 1.00013 0.488009
1.00015 1.00015 0.598368
1.00015 1.00015 0.699862
1.00017 1.00016 0.799998
1.00024 1.00019 0.900017
1.00025 1.00019 1.00014
1.00025 1.00019 1.10163
1.00022 1.00016 1.21198
1.0002 1.10152 0.488069
1.00024 1.10165 0.598389
1.00025 1.10167 0.69987
1.00032 1.10167 0.800028
1.00143 1.10168 0.900046
1.0015 1.10167 1.00014
1.00149 1.10165 1.1016
1.00139 1.10153 1.2119
1.00129 1.21132 0.488711
1.00138 1.21194 0.598519
1.00139 1.21199 0.699884
1.0014 1.21199 0.799999
1.00147 1.21196 0.900014
1.00148 1.21195 1.00012
1.00147 1.2119 1.10148
1.00137 1.21129 1.21128
1.10138 0.48872 0.48872
1.10148 0.488113 0.598522
1.10149 0.488061 0.699883
1.10149 0.488056 0.799993
1.10149 0.488056 0.900006
1.10149 0.488061 1.00012
1.10148 0.488113 1.10148
1.10138 0.48872 1.21128
1.10148 0.598522 0.488113
1.1016 0.598403 0.598403
1.10161 0.598386 0.699867
1.10162 0.598384 0.799992
1.10162 0.598384 0.900008
1.10161 0.598386 1.00013
1.1016 0.598404 1.1016
1.10148 0.598522 1.21189
1.10149 0.699883 0.488061
1.10161 0.699867 0.598386
1.10163 0.699864 0.699863
1.10163 0.699863 0.799991
1.10163 0.699864 0.900009
1.10163 0.699865 1.00014
1.10161 0.699868 1.10161
1.10149 0.699884 1.21194
1.10149 0.799995 0.488057
1.10162 0.799993 0.598384
1.10164 0.799994 0.699863
1.10164 0.799996 0.799992
1.10164 0.800004 0.90001
1.10164 0.800007 1.00014
1.10162 0.800007 1.10162
1.1015 0.800005 1.21194
1.1015 0.900018 0.488057
1.10162 0.900023 0.598385
1.10164 0.900026 0.699865
1.10165 0.900041 0.799998
1.10167 0.900113 0.900016
1.10168 0.900128 1.00014
1.10166 0.900127 1.10161
1.10153 0.900107 1.21193
1.10152 1.0002 0.488069
1.10165 1.00024 0.598391
1.10168 1.00025 0.699882
1.10172 1.00029 0.800051
1.10193 1.00055 0.900073
1.10198 1.0006 1.00015
1.10196 1.00059 1.1016
1.10178 1.00051 1.21187
1.10178 1.10178 0.488178
1.10195 1.10195 0.598428
1.102 1.10197 0.699951
1.10221 1.10198 0.80033
1.11114 1.10211 0.900448
1.11146 1.10212 1.0002
1.11142 1.1021 1.1015
1.11088 1.10192 1.21136
1.11036 1.21133 0.48917
1.11082 1.21194 0.598607
1.11086 1.21199 0.699911
1.11092 1.21193 0.80006
1.11125 1.2115 0.90008
1.11131 1.21143 1.00012
1.11127 1.21138 1.10138
1.11075 1.21084 1.21076
1.21075 0.489248 0.489248
1.21128 0.48872 0.598623
1.21132 0.488677 0.699896
1.21133 0.488673 0.799995
1.21133 0.488673 0.900005
1.21132 0.488677 1.0001
1.21128 0.48872 1.10138
1.21075 0.489248 1.21075
1.21128 0.598623 0.48872
1.21189 0.598522 0.598522
1.21194 0.598507 0.699883
1.21194 0.598506 0.799993
1.21194 0.598506 0.900006
1.21194 0.598507 1.00012
1.21189 0.598522 1.10148
1.21128 0.598623 1.21128
1.21132 0.699896 0.488677
1.21194 0.699883 0.598507
1.21199 0.699881 0.69988
1.212 0.699881 0.799993
1.212 0.699884 0.900007
1.21199 0.699885 1.00012
1.21194 0.699888 1.10149
1.21132 0.6999 1.21132
1.21133 0.799999 0.488673
1.21194 0.799999 0.598506
1.212 0.8 0.699881
1.212 0.800007 0.799996
1.212 0.800084 0.90001
1.212 0.800093 1.00012
1.21194 0.800093 1.10149
1.21133 0.800084 1.21132
1.21133 0.900091 0.488676
1.21194 0.900102 0.598507
1.212 0.900109 0.699887
1.212 0.900181 0.80003
1.212 0.901304 0.900045
1.212 0.901371 1.00013
1.21195 0.901363 1.10148
1.21133 0.901281 1.21129
1.21132 1.00129 0.488712
1.21194 1.00138 0.598527
1.21199 1.00142 0.699963
1.21201 1.00162 0.800328
1.21206 1.01046 0.900447
1.21207 1.01078 1.00019
1.21202 1.01075 1.10141
1.21139 1.0103 1.21084
1.21133 1.11036 0.489172
1.21194 1.11082 0.598682
1.212 1.11086 0.701099
1.21206 1.11092 0.809916
VERTICES 500 1000
1 0
1 1
1 2
1 3
1 4
1 5
1 6
1 7
1 8
1 9
1 10
1 11
1 12
1 13
1 14
1 15
1 16
1 17
1 18
1 19
1 20
1 21
1 22
1 23
1 24
1 25
1 26
1 27
1 28
1 29
1 30
1 31
1 32
1 33
1 34
1 35
1 36
1 37
1 38
1 39
1 40
1 41
1 42
1 43
1 44
1 45
1 46
1 47
1 48
1 49
1 50
1 51
1 52
1 53
1 54
1 55
1 56
1 57
1 58
1 59
1 60
1 61
1 62
1 63
1 64
1 65
1 66
1 67
1 68
1 69
1 70
1 71
1 72
1 73
1 74
1 75
1 76
1 77
1 78
1 79
1 80
1 81
1 82
1 83
1 84
1 85
1 86
1 87
1 88
1 89
1 90
1 91
1 92
1 93
1 94
1 95
1 96
1 97
1 98
1 99
1 100
1 101
1 102
1 103
1 104
1 105
1 106
1 107
1 108
1 109
1 110
1 111
1 112
1 113
1 114
1 115
1 116
1 117
1 118
1 119
1 120
1 121
1 122
1 123
1 124
1 125
1 126
1 127
1 128
1 129
1 130
1 131
1 132
1 133
1 134
1 135
1 136
1 137
1 138
1 139
1 140
1 141
1 142
1 143
1 144
1 145
1 146
1 147
1 148
1 149
1 150
1 151
1 152
1 153
1 154
1 155
1 156
1 157
1 158
1 159
1 160
1 161
1 162
1 163
1 164
1 165
1 166
1 167
1 168
1 169
1 170
1 171
1 172
1 173
1 174
1 175
1 176
1 177
1 178
1 179
1 180
1 181
1 182
1 183
1 184
1 185
1 186
1 187
1 188
1 189
1 190
1 191
1 192
1 193
1 194
1 195
1 196
1 197
1 198
1 199
1 200
1 201
1 202
1 203
1 204
1 205
1 206
1 207
1 208
1 209
1 210
1 211
1 212
1 213
1 214
1 215
1 216
1 217
1 218
1 219
1 220
1 221
1 222
1 223
1 224
1 225
1 226
1 227
1 228
1 229
1 230
1 231
1 232
1 233
1 234
1 235
1 236
1 237
1 238
1 239
1 240
1 241
1 242
1 243
1 244
1 245
1 246
1 247
1 248
1 249
1 250
1 251
1 252
1 253
1 254
1 255
1 256
1 257
1 258
1 259
1 260
1 261
1 262
1 263
1 264
1 265
1 266
1 267
1 268
1 269
1 270
1 271
1 272
1 273
1 274
1 275
1 276
1 277
1 278
1 279
1 280
1 281
1 282
1 283
1 284
1 285
1 286
1 287
1 288
1 289
1 290
1 291
1 292
1 293
1 294
1 295
1 296
1 297
1 298
1 299
1 300
1 301
1 302
1 303
1 304
1 305
1 306
1 307
1 308
1 309
1 310
1 311
1 312
1 313
1 314
1 315
1 316
1 317
1 318
1 319
1 320
1 321
1 322
1 323
1 324
1 325
1 326
1 327
1 328
1 329
1 330
1 331
1 332
1 333
1 334
1 335
1 336
1 337
1 338
1 339
1 340
1 341
1 342
1 343
1 344
1 345
1 346
1 347
1 348
1 349
1 350
1 351
1 352
1 353
1 354
1 355
1 356
1 357
1 358
1 359
1 360
1 361
1 362
1 363
1 364
1 365
1 366
1 367
1 368
1 369
1 370
1 371
1 372
1 373
1 374
1 375
1 376
1 377
1 378
1 379
1 380
1 381
1 382
1 383
1 384
1 385
1 386
1 387
1 388
1 389
1 390
1 391
1 392
1 393
1 394
1 395
1 396
1 397
1 398
1 399
1 400
1 401
1 402
1 403
1 404
1 405
1 406
1 407
1 408
1 409
1 410
1 411
1 412
1 413
1 414
1 415
1 416
1 417
1 418
1 419
1 420
1 421
1 422
1 423
1 424
1 425
1 426
1 427
1 428
1 429
1 430
1 431
1 432
1 433
1 434
1 435
1 436
1 437
1 438
1 439
1 440
1 441
1 442
1 443
1 444
1 445
1 446
1 447
1 448
1 449
1 450
1 451
1 452
1 453
1 454
1 455
1 456
1 457
1 458
1 459
1 460
1 461
1 462
1 463
1 464
1 465
1 466
1 467
1 468
1 469
1 470
1 471
1 472
1 473
1 474
1 475
1 476
1 477
1 478
1 479
1 480
1 481
1 482
1 483
1 484
1 485
1 486
1 487
1 488
1 489
1 490
1 491
1 492
1 493
1 494
1 495
1 496
1 497
1 498
1 499
POINT_DATA 500
VECTORS velocity float
-0.0960795 -0.0960795 -0.0960796
-0.100714 -0.100714 -0.0227543
-0.101324 -0.101324 -0.0025592
-0.101395 -0.101395 -0.000163782
-0.101395 -0.101395 0.000161179
-0.101324 -0.101324 0.00256064
-0.100713 -0.100713 0.0227532
-0.0960797 -0.0960797 0.0960797
-0.100714 -0.0227543 -0.100714
-0.106085 -0.0242063 -0.0242063
-0.106801 -0.0244608 -0.00282515
-0.106887 -0.0244935 -0.000191416
-0.106887 -0.0244935 0.000189549
-0.106801 -0.0244608 0.00283385
-0.106085 -0.0242062 0.0241991
-0.100714 -0.0227542 0.100716
-0.101324 -0.00255919 -0.101324
-0.106801 -0.00282514 -0.0244608
-0.107545 -0.00288162 -0.00288163
-0.107636 -0.00288989 -0.000198851
-0.107636 -0.0028899 0.000195761
-0.107545 -0.00288178 0.00288386
-0.106801 -0.00282518 0.0244616
-0.101325 -0.00255912 0.101322
-0.101395 -0.000163767 -0.101395
-0.106887 -0.000191391 -0.0244935
-0.107636 -0.000198825 -0.00288991
-0.107728 -0.000200507 -0.000200513
-0.107728 -0.000200488 0.000198073
-0.107636 -0.000198774 0.00289299
-0.106887 -0.000191397 0.0244937
-0.101395 -0.00016376 0.101394
-0.101395 0.000161198 -0.101395
-0.106887 0.000189591 -0.0244935
-0.107636 0.000196154 -0.00288992
-0.107728 0.000198112 -0.000200519
-0.107728 0.000198109 0.000198079
-0.107636 0.00019611 0.00289296
-0.106887 0.000189593 0.0244937
-0.101395 0.00016125 0.101395
-0.101324 0.00256066 -0.101324
-0.106801 0.00283384 -0.0244608
-0.107544 0.00288328 -0.0028818
-0.107636 0.00289299 -0.000198796
-0.107636 0.00289301 0.000196081
-0.107544 0.00288345 0.00288341
-0.106801 0.00283388 0.024462
-0.101324 0.00256053 0.101322
-0.100713 0.0227532 -0.100713
-0.106085 0.0241991 -0.0242062
-0.106801 0.024462 -0.00282518
-0.106887 0.0244937 -0.000191407
-0.106887 0.0244937 0.000189569
-0.106801 0.024462 0.00283386
-0.106084 0.024199 0.024199
-0.100713 0.0227532 0.100716
-0.0960797 0.0960797 -0.0960797
-0.100713 0.100716 -0.0227542
-0.101324 0.101322 -0.00255911
-0.101395 0.101394 -0.000163765
-0.101395 0.101394 0.000161013
-0.101324 0.101322 0.00256089
-0.100713 0.100716 0.022753
-0.0960798 0.0960799 0.0960799
-0.0227543 -0.100714 -0.100714
-0.0242065 -0.106085 -0.0242063
-0.0244608 -0.106802 -0.00282515
-0.0244935 -0.106887 -0.000191415
-0.0244935 -0.106887 0.000189548
-0.0244609 -0.106802 0.00283385
-0.0242064 -0.106085 0.0241991
-0.0227542 -0.100714 0.100716
-0.0242063 -0.0242063 -0.106085
-0.0258776 -0.0258775 -0.0258776
-0.0261828 -0.0261828 -0.00314829
-0.0262241 -0.0262241 -0.000226067
-0.026224 -0.0262241 0.000224267
-0.0261828 -0.0261828 0.00315271
-0.0258774 -0.0258774 0.0258762
-0.0242062 -0.0242062 0.106083
-0.0244608 -0.00282513 -0.106802
-0.0261828 -0.00314826 -0.0261828
-0.0265027 -0.00321652 -0.00321655
-0.0265447 -0.00322828 -0.000235484
-0.0265447 -0.00322826 0.000233851
-0.0265025 -0.00321648 0.0032218
-0.0261827 -0.00314827 0.026181
-0.0244608 -0.00282512 0.106801
-0.0244934 -0.000191375 -0.106887
-0.026224 -0.00022601 -0.0262241
-0.0265447 -0.000235402 -0.00322852
-0.0265891 -0.000236911 -0.000236604
-0.0265892 -0.000236889 0.000235293
-0.0265447 -0.000235355 0.00323383
-0.0262236 -0.000226009 0.026221
-0.0244934 -0.000191344 0.106887
-0.0244934 0.000189615 -0.106887
-0.026224 0.000224334 -0.026224
-0.0265447 0.000233874 -0.00322829
-0.026589 0.000235606 -0.000236921
-0.026589 0.000235609 0.000235513
-0.0265444 0.000233895 0.00323382
-0.0262235 0.000224411 0.0262209
-0.024493 0.000189682 0.106887
-0.0244605 0.00283389 -0.106801
-0.0261831 0.00315281 -0.0261828
-0.0265023 0.00322195 -0.00321645
-0.0265443 0.00323473 -0.000235418
-0.0265438 0.00323474 0.000233859
-0.0265018 0.00322197 0.00322172
-0.0261823 0.00315289 0.0261809
-0.0244599 0.00283393 0.106801
-0.0242054 0.0241991 -0.106085
-0.0258768 0.0258763 -0.0258774
-0.0261824 0.0261809 -0.00314825
-0.0262232 0.0262199 -0.000226022
-0.026223 0.0262204 0.000224348
-0.0261816 0.0261809 0.00315274
-0.0258763 0.0258763 0.0258761
-0.024205 0.0241991 0.106083
-0.0227534 0.100716 -0.100713
-0.0242052 0.106083 -0.0242061
-0.0244595 0.106801 -0.00282512
-0.0244929 0.106887 -0.000191395
-0.0244928 0.106887 0.000189615
-0.0244593 0.106801 0.00283389
-0.0242047 0.106083 0.0241989
-0.0227531 0.100716 0.100716
-0.0025592 -0.101324 -0.101324
-0.00282468 -0.106802 -0.0244608
-0.00288161 -0.107545 -0.00288163
-0.00288992 -0.107636 -0.00019885
-0.00288993 -0.107636 0.000195763
-0.00288178 -0.107545 0.00288387
-0.00282472 -0.106801 0.0244616
-0.00255913 -0.101325 0.101322
-0.00282516 -0.0244608 -0.106802
-0.00314827 -0.0261828 -0.0261828
-0.00321654 -0.0265027 -0.00321655
-0.00322829 -0.0265447 -0.000235482
-0.00322827 -0.0265447 0.000233853
-0.00321649 -0.0265026 0.0032218
-0.00314817 -0.0261831 0.0261809
-0.00282514 -0.0244609 0.106801
-0.0028816 -0.00288158 -0.107545
-0.0032165 -0.00321647 -0.0265027
-0.00328911 -0.00328909 -0.00328917
-0.00330172 -0.00330172 -0.000245255
-0.00330169 -0.0033017 0.000243598
-0.0032891 -0.0032891 0.00329326
-0.00321636 -0.00321603 0.0265017
-0.00288146 -0.00288147 0.107543
-0.00288979 -0.000198742 -0.107636
-0.00322813 -0.000235311 -0.0265447
-0.00330158 -0.000245065 -0.00330179
-0.00331352 -0.000247135 -0.00024728
-0.00331321 -0.000246978 0.000245435
-0.00330113 -0.000244951 0.00330489
-0.00322774 -0.000235078 0.0265474
-0.00288958 -0.000198554 0.107632
-0.00288968 0.000196294 -0.107636
-0.00322776 0.000234005 -0.0265447
-0.00330094 0.000243872 -0.00330171
-0.00331262 0.000245811 -0.000247233
-0.00331226 0.000245773 0.000245512
-0.00329995 0.000244173 0.00330491
-0.00322651 0.000234253 0.0265473
-0.00288896 0.000196528 0.107632
-0.0028809 0.00288357 -0.107544
-0.00321447 0.00322228 -0.0265027
-0.0032872 0.00329385 -0.00328871
-0.00329874 0.00330556 -0.000244979
-0.00329756 0.0033058 0.000243817
-0.00328392 0.00329426 0.00329338
-0.00321118 0.00322263 0.0265014
-0.00287875 0.00288385 0.107542
-0.00282316 0.0244623 -0.106801
-0.0031443 0.0261813 -0.0261829
-0.00321152 0.0265022 -0.00321575
-0.0032214 0.0265477 -0.000234954
-0.00321655 0.0265477 0.000234069
-0.00320376 0.0265021 0.00322182
-0.00313588 0.0261812 0.0261804
-0.00281629 0.0244623 0.1068
-0.00255278 0.101322 -0.101324
-0.00281695 0.106801 -0.0244606
-0.00287281 0.107542 -0.00288131
-0.00287925 0.107632 -0.000198551
-0.00287837 0.107632 0.000195902
-0.00287113 0.107542 0.00288376
-0.0028155 0.1068 0.0244614
-0.00255154 0.101322 0.101322
-0.000163808 -0.101395 -0.101395
-0.000191741 -0.106887 -0.0244936
-0.000198859 -0.107636 -0.00288992
-0.000200524 -0.107728 -0.00020051
-0.000200501 -0.107728 0.000198076
-0.000198797 -0.107636 0.002893
-0.000191748 -0.106887 0.0244937
-0.000163783 -0.101395 0.101394
-0.000191399 -0.0244936 -0.106887
-0.000226044 -0.026224 -0.0262241
-0.000235415 -0.0265447 -0.00322852
-0.000236904 -0.0265891 -0.000236596
-0.000236873 -0.0265891 0.000235299
-0.000235346 -0.0265447 0.00323384
-0.000225955 -0.0262236 0.0262215
-0.000191336 -0.0244932 0.106887
-0.000198757 -0.00288977 -0.107636
-0.000235324 -0.00322812 -0.0265447
-0.000245048 -0.00330157 -0.00330178
-0.000246973 -0.00331352 -0.000247272
-0.000246915 -0.00331343 0.000245442
-0.000244827 -0.00330132 0.0033049
-0.000234993 -0.00322785 0.0265474
-0.000198304 -0.00288986 0.107632
-0.000199992 -0.000200019 -0.107727
-0.000236294 -0.000236311 -0.0265891
-0.000246395 -0.000246667 -0.00331384
-0.000247883 -0.000248126 -0.0002487
-0.000247686 -0.00024767 0.000247584
-0.000245366 -0.000245775 0.00331742
-0.000234927 -0.000235272 0.0265898
-0.000198639 -0.000199081 0.107724
-0.000199076 0.000198519 -0.107727
-0.000234903 0.000236101 -0.0265889
-0.000244529 0.000246654 -0.00331345
-0.000244554 0.00024937 -0.000248285
-0.000241593 0.000250843 0.00024799
-0.000238646 0.000248742 0.00331751
-0.000228341 0.000238429 0.0265894
-0.000193822 0.00020036 0.107724
-0.000193616 0.00289521 -0.107635
-0.000228537 0.0032372 -0.0265441
-0.000235372 0.00330829 -0.00330064
-0.000230133 0.00332204 -0.000245147
-0.000211592 0.00332443 0.000247058
-0.000203645 0.00331297 0.00330541
-0.000194941 0.00324232 0.026546
-0.000166212 0.00289939 0.10763
-0.000165255 0.0244971 -0.106885
-0.000193004 0.0262256 -0.0262223
-0.000197328 0.0265516 -0.0032259
-0.000180254 0.0265942 -0.000232214
-7.2902e-05 0.0265945 0.000239999
-5.49131e-05 0.0265522 0.00323461
-4.91622e-05 0.026225 0.0262177
-3.88127e-05 0.0244968 0.106881
-3.62107e-05 0.101394 -0.101391
-4.48828e-05 0.106887 -0.024491
-4.63138e-05 0.107632 -0.00288848
-4.08418e-05 0.107723 -0.000198193
-2.35201e-05 0.107721 0.000199399
-1.52681e-05 0.107627 0.00289254
-1.18816e-05 0.106882 0.0244912
-9.22068e-06 0.101391 0.101389
0.000161166 -0.101395 -0.101395
0.000189552 -0.106887 -0.0244936
0.000195779 -0.107636 -0.00288991
0.000198102 -0.107728 -0.0002005
0.000198113 -0.107728 0.000198087
0.000196111 -0.107636 0.00289296
0.000189576 -0.106887 0.0244937
0.00016124 -0.101395 0.101395
0.00018959 -0.0244935 -0.106887
0.000224313 -0.026224 -0.026224
0.000233878 -0.0265447 -0.00322826
0.000235648 -0.0265889 -0.000236891
0.000235686 -0.0265889 0.000235537
0.00023396 -0.0265443 0.00323383
0.000224234 -0.0262234 0.0262215
0.000189721 -0.0244933 0.106887
0.000196294 -0.00288967 -0.107636
0.000234023 -0.00322775 -0.0265446
0.000243919 -0.00330089 -0.00330165
0.000245868 -0.00331251 -0.000247159
0.000246137 -0.00331201 0.000245596
0.000244606 -0.00329962 0.00330494
0.000234659 -0.0032263 0.0265473
0.000196738 -0.00288864 0.107632
0.000198789 -0.000199088 -0.107727
0.000236186 -0.000234921 -0.0265888
0.000246564 -0.00024491 -0.00331325
0.000250878 -0.000245154 -0.000248329
0.000253072 -0.000243206 0.000248267
0.000251709 -0.00024036 0.00331759
0.000241147 -0.000230094 0.0265892
0.000202838 -0.000194763 0.107724
0.000202254 0.00020217 -0.107727
0.000240942 0.000240755 -0.0265883
0.000254378 0.000252608 -0.00331147
0.000263482 0.000258758 -0.000245679
0.000280831 0.000269329 0.000250195
0.000285195 0.000270271 0.00331877
0.000274583 0.00025922 0.0265875
0.00022796 0.000217148 0.107721
0.00022319 0.00290743 -0.107632
0.000268902 0.00325086 -0.0265425
0.000287647 0.00332841 -0.0032941
0.000337692 0.00335042 -0.000229344
0.000525314 0.00340078 0.000261063
0.000568596 0.00340024 0.00330829
0.000554628 0.0033233 0.0265393
0.000462664 0.00296884 0.107615
0.000418716 0.0245432 -0.106872
0.000502787 0.026282 -0.0262149
0.000539527 0.026607 -0.00321133
0.000730827 0.0266514 -0.000171258
0.00270314 0.0266528 0.000299511
0.00287084 0.0266083 0.00323907
0.00283276 0.0262836 0.0261929
0.00256567 0.024544 0.106819
0.00231906 0.101394 -0.101341
0.00253738 0.106884 -0.0244674
0.00258543 0.107631 -0.00287972
0.00263535 0.107712 -0.000183103
0.00279317 0.107671 0.000211649
0.00283235 0.107569 0.00288933
0.00278431 0.106822 0.0244652
0.00252775 0.101342 0.101327
0.00256078 -0.101324 -0.101324
0.00283386 -0.106801 -0.0244608
0.00288389 -0.107544 -0.00288178
0.00289304 -0.107636 -0.000198777
0.00289303 -0.107636 0.000196098
0.00288347 -0.107544 0.00288342
0.0028339 -0.106801 0.024462
0.00256068 -0.101324 0.101322
0.00283387 -0.0244605 -0.106802
0.00315281 -0.0261831 -0.0261828
0.00322202 -0.0265022 -0.00321638
0.00323485 -0.0265437 -0.000235363
0.00323493 -0.0265435 0.000233903
0.00322222 -0.0265014 0.00322177
0.00315333 -0.0261816 0.0261809
0.00283412 -0.0244594 0.106801
0.00288354 -0.00288089 -0.107544
0.00322234 -0.00321441 -0.0265026
0.00329412 -0.00328679 -0.00328851
0.00330639 -0.00329785 -0.000244677
0.00330719 -0.00329478 0.000244168
0.00329577 -0.00328069 0.0032935
0.00322425 -0.00320863 0.0265013
0.00288553 -0.00287692 0.107542
0.00289485 -0.000193593 -0.107635
0.00323748 -0.000228405 -0.0265436
0.00330954 -0.000235232 -0.0032999
0.00332629 -0.000229084 -0.000243915
0.00333465 -0.000210669 0.000248652
0.00332748 -0.00020162 0.00330576
0.00325223 -0.000192501 0.0265457
0.0029086 -0.000164399 0.107629
0.00290761 0.000223138 -0.107631
0.00325198 0.000268531 -0.0265419
0.00333074 0.00028626 -0.00329195
0.00336697 0.000313995 -0.000228092
0.00344859 0.000405 0.000261292
0.00346137 0.000427719 0.00330922
0.0033849 0.00041348 0.0265389
0.00301797 0.000343803 0.107615
0.00299599 0.00299563 -0.107526
0.00336264 0.00336029 -0.0264864
0.00346607 0.00344592 -0.0032576
0.00366083 0.0035272 -0.000126755
0.00459711 0.00398322 0.000336118
0.00477809 0.00403611 0.00331662
0.004688 0.0039486 0.0264558
0.00413323 0.00351623 0.107435
0.00400352 0.0248915 -0.10671
0.00453367 0.0266745 -0.0261228
0.00471258 0.0270115 -0.00309705
0.0056529 0.0270622 0.000354875
0.0239035 0.0271104 0.000821586
0.0247503 0.0270738 0.00329075
0.024523 0.026738 0.0259492
0.0230609 0.0249445 0.10621
0.0216563 0.10135 -0.100823
0.0229195 0.106826 -0.0242454
0.0231649 0.107561 -0.00281584
0.0233522 0.107579 -7.33965e-05
0.0242079 0.107156 0.000280576
0.0243479 0.10699 0.00287058
0.0241163 0.106255 0.0242186
0.0226894 0.10085 0.100734
0.0227534 -0.100714 -0.100714
0.0241991 -0.106085 -0.0242061
0.0244616 -0.106801 -0.00282515
0.0244937 -0.106887 -0.000191393
0.0244937 -0.106887 0.000189588
0.024462 -0.106801 0.00283386
0.024199 -0.106084 0.024199
0.0227535 -0.100713 0.100716
0.0241991 -0.0242054 -0.106085
0.0258764 -0.0258768 -0.0258773
0.026181 -0.0261819 -0.00314792
0.0262206 -0.0262227 -0.000226043
0.0262207 -0.0262221 0.000224406
0.0261814 -0.026179 0.00315304
0.0258766 -0.0258736 0.025876
0.0241993 -0.0242033 0.106083
0.0244623 -0.00282314 -0.106801
0.0261814 -0.00314411 -0.0261827
0.0265025 -0.00321026 -0.00321479
0.0265487 -0.00321502 -0.000234138
0.0265514 -0.00320075 0.000235659
0.0265067 -0.0031863 0.00322223
0.0261861 -0.00311854 0.0261799
0.0244652 -0.00280277 0.106799
0.0244974 -0.000165027 -0.106885
0.026226 -0.00019222 -0.0262215
0.0265533 -0.00019187 -0.00322146
0.026605 -0.000143936 -0.000220724
0.0266455 4.23615e-05 0.000249548
0.0266102 9.11926e-05 0.00323751
0.0262867 9.52622e-05 0.0262144
0.0245474 7.6861e-05 0.106871
0.0245435 0.000418721 -0.106871
0.026284 0.000504539 -0.026209
0.0266182 0.000547068 -0.00319912
0.0267242 0.000733608 -0.000125512
0.0270939 0.00173922 0.000321702
0.0271092 0.00193046 0.00325531
0.0267757 0.0019007 0.0261812
0.0249774 0.00162167 0.106786
0.0248927 0.00400326 -0.106707
0.0266836 0.00453414 -0.0260911
0.0270712 0.00468854 -0.00297183
0.0272658 0.00485641 0.000176751
0.0273559 0.00617555 0.00066894
0.0275332 0.00642166 0.00340575