# vtk DataFile Version 3.0
Molecular Dynamics Particle Data
ASCII
DATASET POLYDATA
POINTS 500 float
0.497054 0.497054 0.497054
0.496907 0.496907 0.599873
0.496901 0.496901 0.699996
0.496901 0.496901 0.8
0.496901 0.496901 0.9
0.496901 0.496901 1
0.496907 0.496907 1.10013
0.497054 0.497054 1.20295
0.496907 0.599873 0.496907
0.496739 0.59986 0.59986
0.496732 0.599858 0.699995
0.496731 0.599858 0.8
0.496731 0.599858 0.9
0.496732 0.599858 1.00001
0.496739 0.59986 1.10014
0.496907 0.599873 1.20309
0.496901 0.699996 0.496901
0.496732 0.699995 0.599858
0.496723 0.699994 0.699994
0.496723 0.699994 0.8
0.496723 0.699994 0.9
0.496723 0.699994 1.00001
0.496732 0.699995 1.10014
0.496901 0.699996 1.2031
0.496901 0.8 0.496901
0.496731 0.8 0.599858
0.496723 0.8 0.699994
0.496722 0.8 0.8
0.496722 0.8 0.9
0.496723 0.8 1.00001
0.496731 0.8 1.10014
0.496901 0.8 1.2031
0.496901 0.9 0.496901
0.496731 0.9 0.599858
0.496723 0.9 0.699994
0.496722 0.9 0.8
0.496722 0.9 0.9
0.496723 0.9 1.00001
0.496731 0.9 1.10014
0.496901 0.9 1.2031
0.496901 1 0.496901
0.496732 1.00001 0.599858
0.496723 1.00001 0.699994
0.496723 1.00001 0.8
0.496723 1.00001 0.9
0.496723 1.00001 1.00001
0.496732 1.00001 1.10014
0.496901 1 1.2031
0.496907 1.10013 0.496907
0.496739 1.10014 0.59986
0.496732 1.10014 0.699995
0.496731 1.10014 0.8
0.496731 1.10014 0.9
0.496732 1.10014 1.00001
0.496739 1.10014 1.10014
0.496907 1.10013 1.20309
0.497054 1.20295 0.497054
0.496907 1.20309 0.599873
0.496901 1.2031 0.699996
0.496901 1.2031 0.8
0.496901 1.2031 0.9
0.496901 1.2031 1
0.496907 1.20309 1.10013
0.497054 1.20295 1.20295
0.599873 0.496907 0.496907
0.59986 0.496739 0.59986
0.599858 0.496732 0.699995
0.599858 0.496731 0.8
0.599858 0.496731 0.9
0.599858 0.496732 1.00001
0.59986 0.496739 1.10014
0.599873 0.496907 1.20309
0.59986 0.59986 0.496739
0.599843 0.599843 0.599843
0.599841 0.599841 0.699993
0.599841 0.599841 0.8
0.599841 0.599841 0.9
0.599841 0.599841 1.00001
0.599843 0.599843 1.10016
0.59986 0.59986 1.20326
0.599858 0.699995 0.496732
0.599841 0.699993 0.599841
0.599839 0.699993 0.699993
0.599839 0.699993 0.8
0.599839 0.699993 0.9
0.599839 0.699993 1.00001
0.599841 0.699993 1.10016
0.599858 0.699995 1.20327
0.599858 0.8 0.496731
0.599841 0.8 0.599841
0.599839 0.8 0.699993
0.599839 0.8 0.8
0.599839 0.8 0.9
0.599839 0.8 1.00001
0.599841 0.8 1.10016
0.599858 0.8 1.20327
0.599858 0.9 0.496731
0.599841 0.9 0.599841
0.599839 0.9 0.699993
0.599839 0.9 0.8
0.599839 0.9 0.9
0.599839 0.9 1.00001
0.599841 0.9 1.10016
0.599858 0.9 1.20327
0.599858 1.00001 0.496732
0.599841 1.00001 0.599841
0.599839 1.00001 0.699993
0.599839 1.00001 0.8
0.599839 1.00001 0.9
0.599839 1.00001 1.00001
0.599841 1.00001 1.10016
0.599858 1.00001 1.20327
0.59986 1.10014 0.496739
0.599843 1.10016 0.599843
0.599841 1.10016 0.699993
0.599841 1.10016 0.8
0.599841 1.10016 0.9
0.599841 1.10016 1.00001
0.599843 1.10016 1.10016
0.59986 1.10014 1.20326
0.599873 1.20309 0.496907
0.59986 1.20326 0.59986
0.599858 1.20327 0.699995
0.599858 1.20327 0.8
0.599858 1.20327 0.9
0.599858 1.20327 1.00001
0.59986 1.20326 1.10014
0.599873 1.20309 1.20309
0.699996 0.496901 0.496901
0.699995 0.496732 0.599858
0.699994 0.496723 0.699994
0.699994 0.496723 0.8
0.699994 0.496723 0.9
0.699994 0.496723 1.00001
0.699995 0.496732 1.10014
0.699996 0.496901 1.2031
0.699995 0.599858 0.496732
0.699993 0.599841 0.599841
0.699993 0.599839 0.699993
0.699993 0.599839 0.8
0.699993 0.599839 0.9
0.699993 0.599839 1.00001
0.699993 0.599841 1.10016
0.699995 0.599858 1.20327
0.699994 0.699994 0.496723
0.699993 0.699993 0.599839
0.699992 0.699992 0.699992
0.699992 0.699992 0.8
0.699992 0.699992 0.9
0.699992 0.699992 1.00001
0.699993 0.699993 1.10016
0.699994 0.699994 1.20328
0.699994 0.8 0.496723
0.699993 0.8 0.599839
0.699992 0.8 0.699992
0.699992 0.8 0.8
0.699992 0.8 0.9
0.699992 0.8 1.00001
0.699993 0.8 1.10016
0.699994 0.8 1.20328
0.699994 0.9 0.496723
0.699993 0.9 0.599839
0.699992 0.9 0.699992
0.699992 0.9 0.8
0.699992 0.9 0.9
0.699992 0.9 1.00001
0.699993 0.9 1.10016
0.699994 0.9 1.20328
0.699994 1.00001 0.496723
0.699993 1.00001 0.599839
0.699992 1.00001 0.699992
0.699992 1.00001 0.8
0.699992 1.00001 0.9
0.699992 1.00001 1.00001
0.699993 1.00001 1.10016
0.699994 1.00001 1.20328
0.699995 1.10014 0.496732
0.699993 1.10016 0.599841
0.699993 1.10016 0.699993
0.699993 1.10016 0.8
0.699993 1.10016 0.9
0.699993 1.10016 1.00001
0.699993 1.10016 1.10016
0.699995 1.10014 1.20327
0.699996 1.2031 0.496901
0.699995 1.20327 0.599858
0.699994 1.20328 0.699994
0.699994 1.20328 0.8
0.699994 1.20328 0.9
0.699994 1.20328 1.00001
0.699995 1.20327 1.10014
0.699996 1.2031 1.2031
0.8 0.496901 0.496901
0.8 0.496731 0.599858
0.8 0.496723 0.699994
0.8 0.496722 0.8
0.8 0.496722 0.9
0.8 0.496723 1.00001
0.8 0.496731 1.10014
0.8 0.496901 1.2031
0.8 0.599858 0.496731
0.8 0.599841 0.599841
0.8 0.599839 0.699993
0.8 0.599839 0.8
0.8 0.599839 0.9
0.8 0.599839 1.00001
0.8 0.599841 1.10016
0.8 0.599858 1.20327
0.8 0.699994 0.496723
0.8 0.699993 0.599839
0.8 0.699992 0.699992
0.8 0.699992 0.8
0.8 0.699992 0.9
0.8 0.699992 1.00001
0.8 0.699993 1.10016
0.8 0.699994 1.20328
0.8 0.8 0.496722
0.8 0.8 0.599839
0.8 0.8 0.699992
0.8 0.8 0.8
0.8 0.8 0.9
0.8 0.8 1.00001
0.8 0.8 1.10016
0.8 0.8 1.20328
0.8 0.9 0.496722
0.8 0.9 0.599839
0.8 0.9 0.699992
0.8 0.9 0.8
0.8 0.9 0.9
0.8 0.9 1.00001
0.8 0.9 1.10016
0.8 0.9 1.20328
0.8 1.00001 0.496723
0.8 1.00001 0.599839
0.8 1.00001 0.699992
0.8 1.00001 0.8
0.8 1.00001 0.9
0.8 1.00001 1.00001
0.8 1.00001 1.10016
0.8 1.00001 1.20328
0.8 1.10014 0.496731
0.8 1.10016 0.599841
0.8 1.10016 0.699993
0.8 1.10016 0.8
0.8 1.10016 0.9
0.8 1.10016 1.00001
0.8 1.10016 1.10016
0.8 1.10014 1.20327
0.8 1.2031 0.496901
0.8 1.20327 0.599858
0.8 1.20328 0.699994
0.8 1.20328 0.8
0.8 1.20328 0.9
0.8 1.20328 1.00001
0.8 1.20327 1.10014
0.8 1.2031 1.2031
0.9 0.496901 0.496901
0.9 0.496731 0.599858
0.9 0.496723 0.699994
0.9 0.496722 0.8
0.9 0.496722 0.9
0.9 0.496723 1.00001
0.9 0.496731 1.10014
0.9 0.496901 1.2031
0.9 0.599858 0.496731
0.9 0.599841 0.599841
0.9 0.599839 0.699993
0.9 0.599839 0.8
0.9 0.599839 0.9
0.9 0.599839 1.00001
0.9 0.599841 1.10016
0.9 0.599858 1.20327
0.9 0.699994 0.496723
0.9 0.699993 0.599839
0.9 0.699992 0.699992
0.9 0.699992 0.8
0.9 0.699992 0.9
0.9 0.699992 1.00001
0.9 0.699993 1.10016
0.9 0.699994 1.20328
0.9 0.8 0.496722
0.9 0.8 0.599839
0.9 0.8 0.699992
0.9 0.8 0.8
0.9 0.8 0.9
0.9 0.8 1.00001
0.9 0.8 1.10016
0.9 0.8 1.20328
0.9 0.9 0.496722
0.9 0.9 0.599839
0.9 0.9 0.699992
0.9 0.9 0.8
0.9 0.9 0.9
0.9 0.9 1.00001
0.9 0.9 1.10016
0.9 0.9 1.20328
0.9 1.00001 0.496723
0.9 1.00001 0.599839
0.9 1.00001 0.699992
0.900001 1.00001 0.8
0.900002 1.00001 0.9
0.900002 1.00001 1.00001
0.900002 1.00001 1.10016
0.900001 1.00001 1.20328
0.900001 1.10014 0.496731
0.900001 1.10016 0.599841
0.900002 1.10016 0.699993
0.900002 1.10016 0.8
0.900005 1.10016 0.9
0.900005 1.10016 1.00001
0.900005 1.10016 1.10016
0.900004 1.10014 1.20327
0.900003 1.2031 0.496901
0.900004 1.20327 0.599858
0.900004 1.20328 0.699994
0.900004 1.20328 0.8
0.900005 1.20328 0.9
0.900005 1.20328 1.00001
0.900005 1.20327 1.10014
0.900004 1.2031 1.2031
1 0.496901 0.496901
1.00001 0.496732 0.599858
1.00001 0.496723 0.699994
1.00001 0.496723 0.8
1.00001 0.496723 0.9
1.00001 0.496723 1.00001
1.00001 0.496732 1.10014
1 0.496901 1.2031
1.00001 0.599858 0.496732
1.00001 0.599841 0.599841
1.00001 0.599839 0.699993
1.00001 0.599839 0.8
1.00001 0.599839 0.9
1.00001 0.599839 1.00001
1.00001 0.599841 1.10016
1.00001 0.599858 1.20327
1.00001 0.699994 0.496723
1.00001 0.699993 0.599839
1.00001 0.699992 0.699992
1.00001 0.699992 0.8
1.00001 0.699992 0.9
1.00001 0.699992 1.00001
1.00001 0.699993 1.10016
1.00001 0.699994 1.20328
1.00001 0.8 0.496723
1.00001 0.8 0.599839
1.00001 0.8 0.699992
1.00001 0.8 0.8
1.00001 0.8 0.9
1.00001 0.8 1.00001
1.00001 0.8 1.10016
1.00001 0.8 1.20328
1.00001 0.9 0.496723
1.00001 0.9 0.599839
1.00001 0.9 0.699992
1.00001 0.900001 0.8
1.00001 0.900002 0.9
1.00001 0.900002 1.00001
1.00001 0.900002 1.10016
1.00001 0.900002 1.20328
1.00001 1.00001 0.496723
1.00001 1.00001 0.59984
1.00001 1.00001 0.699993
1.00001 1.00001 0.8
1.00002 1.00001 0.900002
1.00002 1.00002 1.00001
1.00002 1.00001 1.10016
1.00002 1.00001 1.20327
1.00002 1.10015 0.496733
1.00002 1.10016 0.599842
1.00002 1.10017 0.699994
1.00003 1.10017 0.800004
1.00013 1.10017 0.900005
1.00014 1.10017 1.00001
1.00014 1.10016 1.10016
1.00013 1.10015 1.20326
1.00011 1.2031 0.496906
1.00012 1.20327 0.599859
1.00013 1.20328 0.699995
1.00013 1.20328 0.8
1.00014 1.20327 0.900001
1.00014 1.20327 1.00001
1.00014 1.20326 1.10014
1.00013 1.20309 1.20309
1.10013 0.496907 0.496907
1.10014 0.496739 0.59986
1.10014 0.496732 0.699995
1.10014 0.496731 0.8
1.10014 0.496731 0.9
1.10014 0.496732 1.00001
1.10014 0.496739 1.10014
1.10013 0.496907 1.20309
1.10014 0.59986 0.496739
1.10016 0.599843 0.599843
1.10016 0.599841 0.699993
1.10016 0.599841 0.8
1.10016 0.599841 0.9
1.10016 0.599841 1.00001
1.10016 0.599843 1.10016
1.10014 0.59986 1.20326
1.10014 0.699995 0.496732
1.10016 0.699993 0.599841
1.10016 0.699993 0.699993
1.10016 0.699993 0.8
1.10016 0.699993 0.9
1.10016 0.699993 1.00001
1.10016 0.699993 1.10016
1.10014 0.699995 1.20327
1.10014 0.8 0.496731
1.10016 0.8 0.599841
1.10016 0.8 0.699993
1.10016 0.8 0.8
1.10016 0.8 0.9
1.10016 0.8 1.00001
1.10016 0.8 1.10016
1.10014 0.8 1.20327
1.10014 0.900001 0.496731
1.10016 0.900001 0.599841
1.10016 0.900002 0.699993
1.10016 0.900005 0.8
1.10017 0.900014 0.900002
1.10017 0.900017 1.00001
1.10017 0.900016 1.10016
1.10015 0.900013 1.20327
1.10015 1.00002 0.496733
1.10016 1.00002 0.599842
1.10017 1.00002 0.699996
1.10019 1.00004 0.800019
1.10029 1.00014 0.900021
1.1003 1.00016 1.00001
1.1003 1.00016 1.10016
1.10027 1.00014 1.20325
1.10026 1.10026 0.49676
1.1003 1.1003 0.599847
1.1003 1.1003 0.700003
1.1004 1.1003 0.800112
1.103 1.10031 0.900127
1.10311 1.10032 1.00001
1.10311 1.10031 1.10014
1.10296 1.10028 1.20312
1.10281 1.2031 0.497032
1.10294 1.20327 0.59987
1.10295 1.20327 0.699998
1.10297 1.20326 0.80002
1.10308 1.20314 0.900022
1.10309 1.20312 1.00001
1.10309 1.20311 1.10013
1.10294 1.20296 1.20295
1.20295 0.497054 0.497054
1.20309 0.496907 0.599873
1.2031 0.496901 0.699996
1.2031 0.496901 0.8
1.2031 0.496901 0.9
1.2031 0.496901 1
1.20309 0.496907 1.10013
1.20295 0.497054 1.20295
1.20309 0.599873 0.496907
1.20326 0.59986 0.59986
1.20327 0.599858 0.699995
1.20327 0.599858 0.8
1.20327 0.599858 0.9
1.20327 0.599858 1.00001
1.20326 0.59986 1.10014
1.20309 0.599873 1.20309
1.2031 0.699996 0.496901
1.20327 0.699995 0.599858
1.20328 0.699994 0.699994
1.20328 0.699994 0.8
1.20328 0.699994 0.9
1.20328 0.699995 1.00001
1.20327 0.699995 1.10014
1.2031 0.699996 1.2031
1.2031 0.8 0.496901
1.20327 0.8 0.599858
1.20328 0.8 0.699994
1.20328 0.8 0.8
1.20328 0.800002 0.9
1.20328 0.800003 1.00001
1.20327 0.800003 1.10014
1.2031 0.800003 1.2031
1.2031 0.900003 0.496901
1.20327 0.900004 0.599858
1.20328 0.900005 0.699995
1.20328 0.900014 0.800004
1.20328 0.900114 0.900005
1.20328 0.900123 1.00001
1.20327 0.900122 1.10014
1.2031 0.900112 1.20309
1.2031 1.00011 0.496906
1.20327 1.00012 0.59986
1.20328 1.00013 0.700004
1.20328 1.00023 0.800112
1.20328 1.00282 0.900127
1.20328 1.00293 1.00001
1.20328 1.00293 1.10013
1.20311 1.0028 1.20297
1.2031 1.10281 0.497032
1.20327 1.10294 0.599872
1.20328 1.10295 0.700097
1.20328 1.10295 0.802684
VERTICES 500 1000
1 0
1 1
1 2
1 3
1 4
1 5
1 6
1 7
1 8
1 9
1 10
1 11
1 12
1 13
1 14
1 15
1 16
1 17
1 18
1 19
1 20
1 21
1 22
1 23
1 24
1 25
1 26
1 27
1 28
1 29
1 30
1 31
1 32
1 33
1 34
1 35
1 36
1 37
1 38
1 39
1 40
1 41
1 42
1 43
1 44
1 45
1 46
1 47
1 48
1 49
1 50
1 51
1 52
1 53
1 54
1 55
1 56
1 57
1 58
1 59
1 60
1 61
1 62
1 63
1 64
1 65
1 66
1 67
1 68
1 69
1 70
1 71
1 72
1 73
1 74
1 75
1 76
1 77
1 78
1 79
1 80
1 81
1 82
1 83
1 84
1 85
1 86
1 87
1 88
1 89
1 90
1 91
1 92
1 93
1 94
1 95
1 96
1 97
1 98
1 99
1 100
1 101
1 102
1 103
1 104
1 105
1 106
1 107
1 108
1 109
1 110
1 111
1 112
1 113
1 114
1 115
1 116
1 117
1 118
1 119
1 120
1 121
1 122
1 123
1 124
1 125
1 126
1 127
1 128
1 129
1 130
1 131
1 132
1 133
1 134
1 135
1 136
1 137
1 138
1 139
1 140
1 141
1 142
1 143
1 144
1 145
1 146
1 147
1 148
1 149
1 150
1 151
1 152
1 153
1 154
1 155
1 156
1 157
1 158
1 159
1 160
1 161
1 162
1 163
1 164
1 165
1 166
1 167
1 168
1 169
1 170
1 171
1 172
1 173
1 174
1 175
1 176
1 177
1 178
1 179
1 180
1 181
1 182
1 183
1 184
1 185
1 186
1 187
1 188
1 189
1 190
1 191
1 192
1 193
1 194
1 195
1 196
1 197
1 198
1 199
1 200
1 201
1 202
1 203
1 204
1 205
1 206
1 207
1 208
1 209
1 210
1 211
1 212
1 213
1 214
1 215
1 216
1 217
1 218
1 219
1 220
1 221
1 222
1 223
1 224
1 225
1 226
1 227
1 228
1 229
1 230
1 231
1 232
1 233
1 234
1 235
1 236
1 237
1 238
1 239
1 240
1 241
1 242
1 243
1 244
1 245
1 246
1 247
1 248
1 249
1 250
1 251
1 252
1 253
1 254
1 255
1 256
1 257
1 258
1 259
1 260
1 261
1 262
1 263
1 264
1 265
1 266
1 267
1 268
1 269
1 270
1 271
1 272
1 273
1 274
1 275
1 276
1 277
1 278
1 279
1 280
1 281
1 282
1 283
1 284
1 285
1 286
1 287
1 288
1 289
1 290
1 291
1 292
1 293
1 294
1 295
1 296
1 297
1 298
1 299
1 300
1 301
1 302
1 303
1 304
1 305
1 306
1 307
1 308
1 309
1 310
1 311
1 312
1 313
1 314
1 315
1 316
1 317
1 318
1 319
1 320
1 321
1 322
1 323
1 324
1 325
1 326
1 327
1 328
1 329
1 330
1 331
1 332
1 333
1 334
1 335
1 336
1 337
1 338
1 339
1 340
1 341
1 342
1 343
1 344
1 345
1 346
1 347
1 348
1 349
1 350
1 351
1 352
1 353
1 354
1 355
1 356
1 357
1 358
1 359
1 360
1 361
1 362
1 363
1 364
1 365
1 366
1 367
1 368
1 369
1 370
1 371
1 372
1 373
1 374
1 375
1 376
1 377
1 378
1 379
1 380
1 381
1 382
1 383
1 384
1 385
1 386
1 387
1 388
1 389
1 390
1 391
1 392
1 393
1 394
1 395
1 396
1 397
1 398
1 399
1 400
1 401
1 402
1 403
1 404
1 405
1 406
1 407
1 408
1 409
1 410
1 411
1 412
1 413
1 414
1 415
1 416
1 417
1 418
1 419
1 420
1 421
1 422
1 423
1 424
1 425
1 426
1 427
1 428
1 429
1 430
1 431
1 432
1 433
1 434
1 435
1 436
1 437
1 438
1 439
1 440
1 441
1 442
1 443
1 444
1 445
1 446
1 447
1 448
1 449
1 450
1 451
1 452
1 453
1 454
1 455
1 456
1 457
1 458
1 459
1 460
1 461
1 462
1 463
1 464
1 465
1 466
1 467
1 468
1 469
1 470
1 471
1 472
1 473
1 474
1 475
1 476
1 477
1 478
1 479
1 480
1 481
1 482
1 483
1 484
1 485
1 486
1 487
1 488
1 489
1 490
1 491
1 492
1 493
1 494
1 495
1 496
1 497
1 498
1 499
POINT_DATA 500
VECTORS velocity float
-0.0568364 -0.0568364 -0.0568364
-0.0596444 -0.0596444 -0.00439891
-0.0598117 -0.0598117 -0.000175304
-0.0598236 -0.0598236 -9.9676e-06
-0.0598237 -0.0598237 8.64914e-06
-0.0598117 -0.0598117 0.000177371
-0.0596444 -0.0596444 0.00439741
-0.0568365 -0.0568365 0.0568368
-0.0596444 -0.00439891 -0.0596444
-0.0628729 -0.00477861 -0.00477861
-0.0630753 -0.00482184 -0.000207129
-0.0630901 -0.0048261 -1.32983e-05
-0.0630901 -0.00482611 1.18981e-05
-0.0630753 -0.00482186 0.000210373
-0.0628729 -0.00477858 0.00477694
-0.0596444 -0.00439889 0.0596447
-0.0598117 -0.0001753 -0.0598117
-0.0630753 -0.000207121 -0.00482185
-0.0632845 -0.000214473 -0.00021448
-0.0633009 -0.000216387 -1.46841e-05
-0.0633009 -0.000216386 1.30546e-05
-0.0632845 -0.000214498 0.000216605
-0.0630753 -0.000207133 0.00482135
-0.0598117 -0.000175271 0.059811
-0.0598236 -9.96015e-06 -0.0598236
-0.0630901 -1.32857e-05 -0.0048261
-0.0633008 -1.46729e-05 -0.000216392
-0.0633172 -1.49921e-05 -1.50011e-05
-0.0633173 -1.49841e-05 1.35662e-05
-0.0633008 -1.46579e-05 0.000218699
-0.06309 -1.32752e-05 0.00482571
-0.0598236 -9.96754e-06 0.0598232
-0.0598237 8.65709e-06 -0.0598237
-0.0630901 1.19146e-05 -0.00482611
-0.0633009 1.30683e-05 -0.000216392
-0.0633173 1.35793e-05 -1.49946e-05
-0.0633173 1.35782e-05 1.35624e-05
-0.0633009 1.30588e-05 0.000218701
-0.0630901 1.1904e-05 0.00482572
-0.0598236 8.67486e-06 0.0598232
-0.0598117 0.00017738 -0.0598117
-0.0630752 0.000210387 -0.00482185
-0.0632844 0.000216624 -0.000214504
-0.0633008 0.000218719 -1.46676e-05
-0.0633008 0.000218724 1.30449e-05
-0.0632844 0.000216651 0.000216634
-0.0630751 0.000210396 0.00482135
-0.0598117 0.000177359 0.059811
-0.0596444 0.00439741 -0.0596444
-0.0628728 0.00477694 -0.00477857
-0.0630751 0.00482135 -0.000207131
-0.06309 0.00482569 -1.32841e-05
-0.06309 0.00482571 1.18947e-05
-0.0630751 0.00482137 0.000210381
-0.0628727 0.00477691 0.0047769
-0.0596443 0.0043974 0.0596447
-0.0568365 0.0568368 -0.0568365
-0.0596444 0.0596447 -0.00439888
-0.0598117 0.059811 -0.000175268
-0.0598235 0.0598232 -9.97164e-06
-0.0598235 0.0598232 8.66299e-06
-0.0598117 0.059811 0.000177342
-0.0596443 0.0596447 0.00439738
-0.0568365 0.0568368 0.0568368
-0.00439893 -0.0596445 -0.0596445
-0.00477869 -0.062873 -0.00477861
-0.00482187 -0.0630754 -0.000207128
-0.00482612 -0.0630901 -1.32979e-05
-0.00482613 -0.0630901 1.18978e-05
-0.00482188 -0.0630754 0.000210372
-0.00477867 -0.0628729 0.00477693
-0.00439891 -0.0596445 0.0596447
-0.00477862 -0.0047786 -0.062873
-0.00522937 -0.00522936 -0.00522937
-0.00528481 -0.00528481 -0.000248116
-0.00529175 -0.00529175 -1.77915e-05
-0.00529175 -0.00529176 1.62672e-05
-0.00528481 -0.00528481 0.000251215
-0.00522934 -0.00522935 0.0052291
-0.00477861 -0.00477859 0.062872
-0.00482185 -0.00020712 -0.0630754
-0.00528482 -0.0002481 -0.00528482
-0.00534356 -0.000257324 -0.00025734
-0.00535029 -0.000259273 -1.9627e-05
-0.00535029 -0.000259271 1.80531e-05
-0.00534351 -0.000257321 0.000260622
-0.00528476 -0.00024811 0.00528399
-0.00482188 -0.000207104 0.0630747
-0.00482609 -1.32792e-05 -0.0630901
-0.00529172 -1.77651e-05 -0.00529176
-0.00535026 -1.95976e-05 -0.000259286
-0.00535744 -1.99998e-05 -2.00278e-05
-0.00535744 -1.99946e-05 1.84597e-05
-0.00535022 -1.95906e-05 0.000262473
-0.0052916 -1.77594e-05 0.00529078
-0.00482607 -1.32593e-05 0.0630894
-0.00482606 1.19214e-05 -0.0630901
-0.00529171 1.62999e-05 -0.00529176
-0.00535022 1.80924e-05 -0.00025928
-0.0053574 1.85033e-05 -2.00214e-05
-0.00535739 1.85143e-05 1.84641e-05
-0.00535015 1.81102e-05 0.000262473
-0.00529156 1.63234e-05 0.00529078
-0.00482602 1.19415e-05 0.0630894
-0.00482178 0.000210404 -0.0630753
-0.00528495 0.000251252 -0.00528481
-0.00534343 0.000260674 -0.000257314
-0.0053501 0.000262801 -1.96019e-05
-0.00534991 0.000262809 1.80619e-05
-0.00534332 0.000260687 0.000260614
-0.00528471 0.000251282 0.00528398
-0.00482159 0.000210414 0.0630747
-0.00477832 0.00477696 -0.0628729
-0.00522916 0.00522913 -0.00522933
-0.00528475 0.00528399 -0.000248102
-0.00529146 0.00529037 -1.7769e-05
-0.00529143 0.00529059 1.62893e-05
-0.00528464 0.005284 0.000251223
-0.00522903 0.00522909 0.00522905
-0.00477822 0.00477695 0.0628719
-0.00439862 0.0596447 -0.0596444
-0.00477827 0.062872 -0.00477857
-0.00482154 0.0630747 -0.000207106
-0.00482603 0.0630896 -1.32817e-05
-0.00482601 0.0630896 1.19179e-05
-0.00482149 0.0630747 0.000210373
-0.00477817 0.0628719 0.0047769
-0.00439853 0.0596447 0.0596447
-0.000175315 -0.0598117 -0.0598117
-0.000207032 -0.0630753 -0.00482185
-0.000214487 -0.0632845 -0.00021448
-0.000216401 -0.0633009 -1.46837e-05
-0.000216399 -0.0633009 1.30552e-05
-0.00021451 -0.0632845 0.00021661
-0.000207043 -0.0630751 0.00482135
-0.000175283 -0.0598118 0.0598111
-0.000207133 -0.00482184 -0.0630754
-0.000248108 -0.0052848 -0.00528482
-0.000257334 -0.00534355 -0.000257339
-0.00025928 -0.00535028 -1.96259e-05
-0.000259276 -0.00535028 1.80536e-05
-0.000257328 -0.00534352 0.000260623
-0.00024811 -0.005285 0.005284
-0.000207114 -0.00482187 0.0630747
-0.000214471 -0.000214455 -0.0632845
-0.000257323 -0.000257306 -0.00534357
-0.000267394 -0.000267382 -0.000267419
-0.000269695 -0.000269686 -2.15406e-05
-0.000269686 -0.000269679 1.99831e-05
-0.000267367 -0.000267358 0.000271169
-0.000257259 -0.000257077 0.00534206
-0.000214425 -0.000214414 0.0632839
-0.00021634 -1.46357e-05 -0.0633008
-0.000259212 -1.956e-05 -0.00535029
-0.000269634 -2.14629e-05 -0.000269715
-0.0002721 -2.21834e-05 -2.22635e-05
-0.000272067 -2.2168e-05 2.05443e-05
-0.000269556 -2.1431e-05 0.000273198
-0.000259089 -1.94764e-05 0.00535026
-0.000216241 -1.45633e-05 0.0632994
-0.000216255 1.31317e-05 -0.0633009
-0.000259094 1.81532e-05 -0.00535027
-0.000269495 2.01082e-05 -0.000269692
-0.000271916 2.06928e-05 -2.2241e-05
-0.000271866 2.07265e-05 2.0568e-05
-0.000269321 2.01964e-05 0.000273203
-0.000258865 1.82147e-05 0.00535024
-0.000216076 1.31962e-05 0.0632994
-0.000214252 0.000216711 -0.0632844
-0.000256794 0.000260764 -0.00534354
-0.000266987 0.00027133 -0.000267292
-0.000269183 0.000273396 -2.14769e-05
-0.000269325 0.000273428 2.00502e-05
-0.000266716 0.000271403 0.000271174
-0.000256549 0.000260812 0.00534195
-0.000214186 0.00021677 0.0632837
-0.000206994 0.00482142 -0.063075
-0.000247598 0.00528408 -0.00528491
-0.000256597 0.00534218 -0.000257034
-0.000258414 0.00535036 -1.94929e-05
-0.00025829 0.00535037 1.80936e-05
-0.000256244 0.00534214 0.000260591
-0.000247178 0.00528402 0.00528385
-0.000206614 0.00482146 0.0630745
-0.000175049 0.0598111 -0.0598116
-0.000206752 0.0630747 -0.0048218
-0.000213951 0.0632839 -0.000214368
-0.000215371 0.0632994 -1.45785e-05
-0.000215248 0.0632994 1.30999e-05
-0.000213669 0.0632838 0.000216586
-0.000206393 0.0630746 0.00482129
-0.000174695 0.0598111 0.0598109
-9.98083e-06 -0.0598236 -0.0598236
-1.33667e-05 -0.0630901 -0.00482617
-1.46919e-05 -0.0633009 -0.000216392
-1.50025e-05 -0.0633172 -1.49996e-05
-1.49928e-05 -0.0633173 1.35676e-05
-1.46726e-05 -0.0633009 0.000218702
-1.33555e-05 -0.06309 0.00482571
-9.98109e-06 -0.0598237 0.0598232
-1.32904e-05 -0.00482615 -0.0630901
-1.77802e-05 -0.00529173 -0.00529176
-1.96044e-05 -0.00535026 -0.000259282
-1.99999e-05 -0.00535744 -2.00237e-05
-1.99886e-05 -0.00535744 1.8463e-05
-1.95836e-05 -0.00535021 0.000262475
-1.77503e-05 -0.00529161 0.00529101
-1.32572e-05 -0.00482607 0.0630893
-1.46486e-05 -0.000216333 -0.0633009
-1.95732e-05 -0.000259205 -0.00535028
-2.14635e-05 -0.000269623 -0.000269708
-2.21665e-05 -0.00027209 -2.22561e-05
-2.21362e-05 -0.000272055 2.05507e-05
-2.13936e-05 -0.00026954 0.0002732
-1.94383e-05 -0.000259079 0.00535026
-1.4536e-05 -0.000216227 0.0632994
-1.48704e-05 -1.48667e-05 -0.0633172
-1.98377e-05 -1.9841e-05 -0.00535743
-2.20127e-05 -2.20317e-05 -0.000272157
-2.24375e-05 -2.24807e-05 -2.27277e-05
-2.23184e-05 -2.23893e-05 2.13535e-05
-2.17325e-05 -2.1821e-05 0.000275295
-1.95125e-05 -1.96001e-05 0.00535741
-1.45685e-05 -1.4638e-05 0.0633156
-1.46133e-05 1.3841e-05 -0.0633172
-1.94748e-05 1.88466e-05 -0.00535736
-2.15306e-05 2.10341e-05 -0.00027205
-2.17473e-05 2.1961e-05 -2.2585e-05
-2.13747e-05 2.2155e-05 2.14612e-05
-2.06565e-05 2.15143e-05 0.000275316
-1.84759e-05 1.94034e-05 0.00535733
-1.37649e-05 1.42801e-05 0.0633155
-1.3692e-05 0.00021918 -0.0633006
-1.82502e-05 0.000263378 -0.00535004
-1.9707e-05 0.000273997 -0.000269409
-1.95426e-05 0.000276281 -2.18163e-05
-1.77476e-05 0.000276533 2.09265e-05
-1.63572e-05 0.000274585 0.000273278
-1.46796e-05 0.000264016 0.00534992
-1.11502e-05 0.000219683 0.0632988
-1.08871e-05 0.00482621 -0.0630896
-1.42762e-05 0.00529132 -0.00529122
-1.4989e-05 0.00535104 -0.000258778
-1.3768e-05 0.0053583 -1.9381e-05
-1.03746e-05 0.00535827 1.90233e-05
-8.54423e-06 0.005351 0.000262518
-7.34366e-06 0.00529102 0.0052902
-5.38603e-06 0.00482606 0.0630884
-5.05772e-06 0.0598232 -0.0598229
-6.5594e-06 0.0630895 -0.00482579
-6.97437e-06 0.0632993 -0.000215841
-6.35959e-06 0.0633154 -1.45e-05
-4.7716e-06 0.0633152 1.39352e-05
-3.66684e-06 0.0632988 0.000218534
-2.90915e-06 0.0630889 0.0048253
-2.13738e-06 0.0598229 0.0598223
8.63923e-06 -0.0598236 -0.0598237
1.18943e-05 -0.0630901 -0.00482618
1.30537e-05 -0.0633009 -0.000216387
1.35735e-05 -0.0633173 -1.49901e-05
1.35759e-05 -0.0633173 1.35659e-05
1.30519e-05 -0.0633009 0.000218703
1.18967e-05 -0.0630901 0.00482572
8.66703e-06 -0.0598236 0.0598233
1.19093e-05 -0.00482614 -0.0630902
1.62916e-05 -0.00529172 -0.00529175
1.80966e-05 -0.00535022 -0.000259268
1.85255e-05 -0.00535738 -2.0008e-05
1.85462e-05 -0.00535736 1.84749e-05
1.81485e-05 -0.00535011 0.000262479
1.63537e-05 -0.00529152 0.005291
1.19693e-05 -0.00482613 0.0630893
1.31237e-05 -0.00021626 -0.0633009
1.81535e-05 -0.000259093 -0.00535025
2.01396e-05 -0.000269474 -0.000269664
2.07758e-05 -0.000271882 -2.22007e-05
2.08683e-05 -0.000271764 2.0604e-05
2.03756e-05 -0.000269187 0.000273218
1.83907e-05 -0.000258739 0.00535023
1.3339e-05 -0.000215877 0.0632993
1.38498e-05 -1.46218e-05 -0.0633171
1.88933e-05 -1.94813e-05 -0.00535733
2.11702e-05 -2.1512e-05 -0.00027201
2.22805e-05 -2.16657e-05 -2.2477e-05
2.28233e-05 -2.11942e-05 2.15655e-05
2.25285e-05 -2.04156e-05 0.000275358
2.04663e-05 -1.82387e-05 0.00535729
1.50969e-05 -1.35962e-05 0.0633154
1.47837e-05 1.47506e-05 -0.0633169
2.04839e-05 2.03875e-05 -0.00535711
2.35585e-05 2.29698e-05 -0.000271543
2.61896e-05 2.49003e-05 -2.1604e-05
2.95086e-05 2.67407e-05 2.23446e-05
3.05401e-05 2.68179e-05 0.000275528
2.82428e-05 2.46282e-05 0.00535681
2.09252e-05 1.83702e-05 0.0633145
1.94047e-05 0.000222121 -0.0632994
2.67209e-05 0.000266523 -0.00534948
3.14668e-05 0.000278215 -0.000267992
4.0244e-05 0.000282161 -1.83992e-05
5.92741e-05 0.000286436 2.38301e-05
6.58267e-05 0.000286062 0.000273949
6.35107e-05 0.00027479 0.00534822
4.97282e-05 0.000228477 0.0632953
4.27614e-05 0.00483225 -0.0630865
5.53244e-05 0.00529965 -0.00528936
6.16441e-05 0.00535956 -0.000256619
8.12773e-05 0.00536679 -1.26662e-05
0.000187012 0.00536701 2.52503e-05
0.00020488 0.00535923 0.000263588
0.000201404 0.00529964 0.00528715
0.000170773 0.00483212 0.0630793
0.000139536 0.0598232 -0.0598164
0.000162353 0.0630891 -0.00482347
0.000168945 0.0632986 -0.000214031
0.000177214 0.0633133 -1.12826e-05
0.000194986 0.0633089 1.67958e-05
0.000201802 0.0632908 0.000218298
0.000197105 0.0630806 0.00482245
0.000168209 0.0598166 0.0598128
0.000177362 -0.0598118 -0.0598118
0.000210368 -0.0630752 -0.00482185
0.000216612 -0.0632845 -0.000214496
0.000218719 -0.0633008 -1.46584e-05
0.000218728 -0.0633008 1.30525e-05
0.000216651 -0.0632844 0.000216637
0.000210394 -0.0630751 0.00482135
0.000177354 -0.0598117 0.0598111
0.000210394 -0.00482179 -0.0630754
0.000251248 -0.00528497 -0.00528479
0.000260685 -0.00534342 -0.000257284
0.000262836 -0.00534987 -1.95695e-05
0.000262869 -0.0053498 1.80859e-05
0.000260765 -0.00534319 0.000260627
0.000251352 -0.00528459 0.00528398
0.000210478 -0.00482149 0.0630747
0.000216707 -0.000214258 -0.0632844
0.000260779 -0.000256775 -0.0053435
0.000271406 -0.000266911 -0.000267223
0.000273596 -0.000269203 -2.13365e-05
0.000273769 -0.000268859 2.01759e-05
0.000271817 -0.00026611 0.000271221
0.000261218 -0.000255986 0.00534191
0.000217339 -0.0002137 0.0632837
0.000219204 -1.36929e-05 -0.0633005
0.000263489 -1.81901e-05 -0.00534975
0.000274374 -1.93708e-05 -0.000269362
0.000277509 -1.81292e-05 -2.09337e-05
0.00027913 -1.46313e-05 2.1615e-05
0.000277745 -1.22097e-05 0.000273471
0.000266738 -1.05814e-05 0.00534968
0.000222122 -8.20975e-06 0.0632982
0.000222199 1.93801e-05 -0.0632993
0.000266837 2.67135e-05 -0.0053492
0.000279504 3.15177e-05 -0.000267047
0.000290183 4.08571e-05 -1.50483e-05
0.000309675 6.06999e-05 2.70874e-05
0.000314751 6.76014e-05 0.000274324
0.000303736 6.52927e-05 0.00534736
0.000251482 5.11103e-05 0.0632925
0.000246859 0.000246739 -0.0632775
0.000299319 0.000298721 -0.00533886
0.000318937 0.000314281 -0.000257987
0.000386099 0.000340647 1.64128e-05
0.00066278 0.00044509 5.37217e-05
0.000725583 0.000466843 0.00027763
0.000712883 0.000453523 0.00532987
0.000596584 0.000377589 0.0632434
0.000554154 0.00494767 -0.0630405
0.000662946 0.00543552 -0.00527031
0.00070075 0.00549787 -0.000233938
0.000981122 0.00550525 0.000113205
0.00454579 0.00550938 0.000146592
0.00480846 0.00550259 0.000277823
0.00478246 0.00544137 0.00524706
0.00440681 0.00495288 0.0629158
0.00403727 0.0598156 -0.0596862
0.00434701 0.0630787 -0.00479009
0.00438767 0.0632845 -0.000202292
0.00445253 0.0632757 2.31859e-05
0.00471375 0.0631711 4.70841e-05
0.00477315 0.0631296 0.000220874
0.00473944 0.0629204 0.00478251
0.00436926 0.0596814 0.0596526
0.00439756 -0.0596445 -0.0596445
0.00477692 -0.0628729 -0.00477857
0.00482134 -0.0630751 -0.000207118
0.00482569 -0.06309 -1.32698e-05
0.00482571 -0.06309 1.19056e-05
0.00482136 -0.0630751 0.000210385
0.00477692 -0.0628728 0.0047769
0.00439756 -0.0596444 0.0596447
0.00477695 -0.00477832 -0.0628729
0.00522913 -0.00522919 -0.00522931
0.00528401 -0.00528468 -0.000248052
0.00529062 -0.00529131 -1.77095e-05
0.00529066 -0.00529119 1.63406e-05
0.00528408 -0.0052842 0.000251249
0.00522917 -0.00522854 0.00522902
0.00477698 -0.00477796 0.0628719
0.00482142 -0.000206981 -0.0630751
0.00528409 -0.000247528 -0.00528485
0.00534227 -0.000256348 -0.000256839
0.00535063 -0.000257699 -1.91643e-05
0.00535087 -0.000256901 1.83999e-05
0.00534277 -0.000254726 0.000260703
0.00528466 -0.000245722 0.00528374
0.00482156 -0.000205264 0.0630742
0.00482624 -1.08518e-05 -0.0630895
0.00529146 -1.39493e-05 -0.00529089
0.00535168 -1.32497e-05 -0.000257722
0.00536081 -4.8405e-06 -1.63747e-05
0.00536515 1.53206e-05 2.17687e-05
0.00535963 2.37838e-05 0.000263275
0.0053001 2.46861e-05 0.00528933
0.004833 2.009e-05 0.0630858
0.00483237 4.2806e-05 -0.0630863
0.00530047 5.57989e-05 -0.00528776
0.00536393 6.74395e-05 -0.00025047
0.00539475 0.000131775 1.7346e-05
0.00549392 0.000405018 5.21775e-05
0.00551099 0.000467869 0.000269692
0.00545054 0.000464056 0.0052795
0.00495931 0.000389062 0.0630528
0.00494798 0.000554101 -0.0630398
0.00543758 0.000662982 -0.00526539
0.0055242 0.000703871 -0.00018368
0.00581185 0.00098712 0.000337219
0.00743295 0.00266164 0.000389329
0.00772158 0.00295694 0.000319027
0.00765168 0.00293277 0.00521193
0.00687213 0.00252933 0.0626783
0.00676657 0.00676627 -0.0625053
0.00752192 0.0075174 -0.00514164
0.00769904 0.00759692 5.85486e-05
0.00933696 0.00763228 0.00195487
0.0582348 0.00816452 0.00246128
0.060241 0.0081927 0.000474725
0.0600817 0.00810999 0.00487733
0.0572321 0.00731176 0.0600869
0.0544984 0.059842 -0.0572581
0.0569447 0.0630898 -0.00447093
0.0571091 0.0632673 -0.000113901
0.0574405 0.0629337 0.00037045
0.0594096 0.0606108 0.000415652
0.0597409 0.0602244 0.000248087
0.0595895 0.0600303 0.00441562