# vtk DataFile Version 3.0
Molecular Dynamics Particle Data
ASCII
DATASET POLYDATA
POINTS 500 float
0.421893 0.421893 0.421893
0.418321 0.418321 0.561138
0.41734 0.41734 0.682122
0.417053 0.417053 0.794855
0.417053 0.417053 0.905144
0.41734 0.41734 1.01788
0.418321 0.418321 1.13886
0.421893 0.421893 1.27811
0.418321 0.561138 0.418321
0.414146 0.559503 0.559503
0.413014 0.558854 0.681296
0.412684 0.558608 0.794591
0.412684 0.558608 0.905411
0.413014 0.558854 1.0187
0.414146 0.559503 1.1405
0.418321 0.561138 1.28168
0.41734 0.682122 0.41734
0.413014 0.681296 0.558854
0.411816 0.680936 0.680936
0.411465 0.680787 0.794471
0.411465 0.680787 0.905528
0.411817 0.680936 1.01906
0.413014 0.681296 1.14115
0.41734 0.682123 1.28266
0.417053 0.794855 0.417053
0.412684 0.794591 0.558608
0.411465 0.794471 0.680787
0.411102 0.794421 0.794421
0.411102 0.794421 0.905578
0.411465 0.794471 1.01921
0.412684 0.794591 1.14139
0.417053 0.794855 1.28295
0.417053 0.905144 0.417053
0.412684 0.905411 0.558608
0.411465 0.905528 0.680787
0.411103 0.905578 0.794421
0.411103 0.905578 0.905578
0.411465 0.905528 1.01921
0.412685 0.905411 1.14139
0.417054 0.905144 1.28295
0.417341 1.01788 0.41734
0.413014 1.0187 0.558854
0.411817 1.01906 0.680936
0.411465 1.01921 0.794471
0.411466 1.01921 0.905528
0.411819 1.01906 1.01906
0.413016 1.0187 1.14115
0.417342 1.01788 1.28266
0.418321 1.13886 0.418321
0.414147 1.1405 0.559503
0.413016 1.14115 0.681296
0.412686 1.14139 0.794591
0.412689 1.14139 0.905411
0.413019 1.14115 1.0187
0.41415 1.1405 1.1405
0.418325 1.13886 1.28168
0.421897 1.27811 0.421893
0.418325 1.28168 0.561138
0.417345 1.28266 0.682123
0.417058 1.28295 0.794854
0.417059 1.28295 0.905144
0.417345 1.28266 1.01788
0.418326 1.28168 1.13886
0.421897 1.27811 1.27811
0.561138 0.418321 0.418321
0.559503 0.414146 0.559503
0.558854 0.413014 0.681296
0.558608 0.412684 0.794591
0.558608 0.412684 0.905411
0.558854 0.413014 1.0187
0.559503 0.414146 1.1405
0.561138 0.418321 1.28168
0.559503 0.559503 0.414146
0.557662 0.557662 0.557662
0.556922 0.556922 0.680369
0.556645 0.556645 0.794293
0.556645 0.556645 0.905708
0.556922 0.556922 1.01963
0.557662 0.557662 1.14234
0.559503 0.559503 1.28585
0.558854 0.681296 0.413014
0.556922 0.680369 0.556922
0.55614 0.679963 0.679963
0.555847 0.679797 0.79416
0.555847 0.679797 0.90584
0.556141 0.679963 1.02004
0.556922 0.680369 1.14308
0.558854 0.681296 1.28698
0.558608 0.794591 0.412684
0.556645 0.794294 0.556645
0.555847 0.794161 0.679796
0.555546 0.794104 0.794104
0.555546 0.794105 0.905898
0.555848 0.794161 1.0202
0.556646 0.794294 1.14336
0.558609 0.794592 1.28732
0.558609 0.905411 0.412684
0.556646 0.905708 0.556645
0.555848 0.90584 0.679797
0.555548 0.905899 0.794104
0.555551 0.9059 0.905898
0.555852 0.905842 1.0202
0.55665 0.90571 1.14336
0.558613 0.905412 1.28732
0.558857 1.0187 0.413014
0.556926 1.01963 0.556922
0.556146 1.02004 0.679963
0.555857 1.02021 0.794162
0.555872 1.02021 0.905841
0.556169 1.02004 1.02004
0.55695 1.01964 1.14308
0.558876 1.01871 1.28698
0.559522 1.1405 0.414147
0.557684 1.14234 0.557662
0.556949 1.14308 0.680371
0.556686 1.14336 0.794298
0.556803 1.14336 0.905712
0.55709 1.14308 1.01963
0.557822 1.14234 1.14234
0.559653 1.1405 1.28585
0.561276 1.28168 0.418323
0.559652 1.28586 0.559506
0.559009 1.28699 0.681298
0.558771 1.28732 0.794593
0.558782 1.28732 0.905411
0.559027 1.28698 1.0187
0.55967 1.28585 1.14049
0.561291 1.28168 1.28168
0.682122 0.41734 0.41734
0.681296 0.413014 0.558854
0.680936 0.411816 0.680936
0.680787 0.411465 0.794471
0.680787 0.411465 0.905528
0.680936 0.411816 1.01906
0.681296 0.413014 1.14115
0.682123 0.41734 1.28266
0.681296 0.558854 0.413014
0.680369 0.556922 0.556922
0.679963 0.55614 0.679963
0.679797 0.555847 0.79416
0.679797 0.555847 0.90584
0.679963 0.556141 1.02004
0.680369 0.556922 1.14308
0.681296 0.558854 1.28698
0.680936 0.680936 0.411816
0.679963 0.679963 0.55614
0.679536 0.679536 0.679536
0.679358 0.679358 0.79402
0.679359 0.679359 0.905981
0.679537 0.679537 1.02047
0.679964 0.679964 1.14386
0.680937 0.680937 1.28818
0.680788 0.794472 0.411465
0.679797 0.794161 0.555847
0.679359 0.79402 0.679358
0.679179 0.79396 0.793959
0.679181 0.793962 0.906041
0.679364 0.794024 1.02064
0.679801 0.794163 1.14415
0.680791 0.794474 1.28854
0.68079 0.905529 0.411465
0.6798 0.905842 0.555847
0.679365 0.905984 0.679359
0.679187 0.906044 0.79396
0.679198 0.90605 0.906041
0.679382 0.905993 1.02064
0.679819 0.905851 1.14415
0.680806 0.905536 1.28853
0.680952 1.01907 0.411818
0.679984 1.02004 0.556142
0.679563 1.02047 0.679539
0.679407 1.02065 0.794027
0.679506 1.02067 0.905988
0.679702 1.0205 1.02047
0.680124 1.02007 1.14386
0.681068 1.01909 1.28818
0.681419 1.14116 0.413018
0.680517 1.14309 0.556927
0.680129 1.14388 0.679975
0.680035 1.14417 0.7942
0.68127 1.14417 0.905875
0.68148 1.14388 1.02003
0.681846 1.1431 1.14306
0.682689 1.14116 1.28697
0.683426 1.28266 0.417356
0.682677 1.28698 0.558871
0.682358 1.28818 0.68095
0.682245 1.28853 0.794481
0.682319 1.28852 0.905528
0.682465 1.28817 1.01905
0.682782 1.28697 1.14113
0.683516 1.28264 1.28264
0.794855 0.417053 0.417053
0.794591 0.412684 0.558608
0.794471 0.411465 0.680787
0.794421 0.411102 0.794421
0.794421 0.411102 0.905578
0.794471 0.411465 1.01921
0.794591 0.412684 1.14139
0.794855 0.417053 1.28295
0.794591 0.558608 0.412684
0.794294 0.556645 0.556645
0.794161 0.555847 0.679796
0.794104 0.555546 0.794104
0.794105 0.555546 0.905898
0.794161 0.555848 1.0202
0.794294 0.556646 1.14336
0.794592 0.558609 1.28732
0.794472 0.680788 0.411465
0.794161 0.679797 0.555847
0.794021 0.679359 0.679358
0.793961 0.679179 0.793959
0.793962 0.679181 0.906041
0.794024 0.679362 1.02064
0.794163 0.679801 1.14415
0.794474 0.680791 1.28853
0.794424 0.794424 0.411102
0.794107 0.794107 0.555545
0.793962 0.793963 0.679178
0.793906 0.793906 0.793899
0.793913 0.793913 0.906103
0.793977 0.793975 1.02082
0.794118 0.794119 1.14445
0.794434 0.794434 1.28889
0.794431 0.905585 0.411103
0.794116 0.905906 0.555547
0.793976 0.906049 0.679179
0.793921 0.906119 0.793903
0.793955 0.906144 0.906105
0.794022 0.906085 1.02082
0.794163 0.905941 1.14445
0.794471 0.905615 1.28889
0.794516 1.01923 0.411467
0.794217 1.02022 0.555852
0.794088 1.02066 0.679369
0.794067 1.02086 0.793981
0.794242 1.02095 0.90606
0.794345 1.02078 1.02064
0.794473 1.02033 1.14414
0.794714 1.01933 1.28852
0.794915 1.14145 0.412697
0.794689 1.14342 0.556662
0.794601 1.14422 0.679846
0.794522 1.14453 0.794273
0.799642 1.14454 0.906035
0.799702 1.14424 1.02019
0.799726 1.14343 1.14328
0.799784 1.14146 1.28724
0.799746 1.28294 0.417126
0.799699 1.28732 0.558687
0.79969 1.28853 0.680847
0.799718 1.28888 0.794456
0.799924 1.28882 0.905575
0.799963 1.28845 1.01916
0.799974 1.28724 1.14131
0.799977 1.28288 1.28286
0.905144 0.417053 0.417053
0.905411 0.412684 0.558608
0.905528 0.411465 0.680787
0.905578 0.411103 0.794421
0.905578 0.411103 0.905578
0.905528 0.411465 1.01921
0.905411 0.412685 1.14139
0.905144 0.417054 1.28295
0.905411 0.558609 0.412684
0.905708 0.556646 0.556645
0.90584 0.555848 0.679796
0.905899 0.555548 0.794104
0.9059 0.55555 0.905898
0.905842 0.555852 1.0202
0.90571 0.556648 1.14336
0.905412 0.558612 1.28732
0.905529 0.68079 0.411465
0.905842 0.6798 0.555847
0.905984 0.679364 0.679358
0.906044 0.679185 0.79396
0.906049 0.679195 0.906041
0.90599 0.679379 1.02064
0.905849 0.679816 1.14415
0.905535 0.680803 1.28853
0.905585 0.794431 0.411103
0.905906 0.794115 0.555547
0.906049 0.793975 0.679179
0.906119 0.793921 0.793903
0.906138 0.793959 0.906105
0.906082 0.794026 1.02082
0.905935 0.794165 1.14445
0.905611 0.794474 1.28889
0.905603 0.905603 0.411104
0.905927 0.905927 0.55555
0.906077 0.906077 0.679184
0.906147 0.906149 0.79391
0.906236 0.906248 0.90611
0.906185 0.906197 1.02082
0.906034 0.906044 1.14445
0.9057 0.905708 1.28889
0.905623 1.01927 0.411473
0.905957 1.02027 0.555861
0.906115 1.02072 0.679389
0.906206 1.02091 0.794
0.90608 1.0212 0.906078
0.906077 1.02103 1.02066
0.905926 1.02058 1.14413
0.905515 1.01955 1.28849
0.905839 1.14157 0.412725
0.906257 1.14355 0.556704
0.906496 1.14436 0.679982
0.905683 1.14467 0.794634
0.918463 1.1447 0.906206
0.918035 1.1444 1.02021
0.917706 1.14359 1.14312
0.916993 1.1416 1.28701
0.916049 1.28294 0.417321
0.916694 1.2873 0.558853
0.916991 1.28852 0.680958
0.917149 1.28886 0.794512
0.917535 1.28864 0.905566
0.917466 1.28825 1.01908
0.917159 1.28705 1.14114
0.916438 1.28271 1.28265
1.01788 0.417341 0.41734
1.0187 0.413014 0.558854
1.01906 0.411817 0.680936
1.01921 0.411465 0.794471
1.01921 0.411466 0.905528
1.01906 0.411819 1.01906
1.0187 0.413016 1.14115
1.01788 0.417342 1.28266
1.0187 0.558857 0.413014
1.01963 0.556926 0.556923
1.02004 0.556146 0.679963
1.02021 0.555856 0.794161
1.02021 0.555865 0.905841
1.02004 0.556161 1.02004
1.01964 0.556942 1.14308
1.01871 0.558869 1.28698
1.01907 0.680952 0.411818
1.02004 0.679983 0.556142
1.02047 0.67956 0.679538
1.02065 0.679395 0.794024
1.02067 0.679447 0.905985
1.02049 0.679632 1.02047
1.02006 0.680056 1.14386
1.01909 0.681014 1.28818
1.01923 0.794516 0.411467
1.02022 0.794216 0.555852
1.02066 0.794083 0.679365
1.02086 0.794041 0.793971
1.02091 0.794208 0.90605
1.02074 0.794285 1.02064
1.02029 0.794414 1.14415
1.01929 0.794693 1.28852
1.01927 0.905623 0.411474
1.02027 0.905954 0.55586
1.02072 0.906106 0.679378
1.02092 0.906181 0.793989
1.02118 0.906557 0.906062
1.02102 0.906513 1.02064
1.02056 0.906352 1.14414
1.01954 0.905989 1.28852
1.01927 1.01927 0.411841
1.02028 1.02027 0.556188
1.02074 1.02072 0.679607
1.02097 1.02088 0.794068
1.01979 1.02172 0.906041
1.01972 1.02154 1.0205
1.01929 1.02107 1.14384
1.01822 1.02002 1.28809
1.01906 1.14168 0.413117
1.02016 1.14366 0.557134
1.02087 1.14447 0.680661
1.01789 1.1448 0.795804
1.04436 1.14452 0.905928
1.04264 1.14426 1.02012
1.04194 1.14345 1.14258
1.04032 1.14144 1.286
1.03805 1.2826 0.418206
1.03951 1.28691 0.559466
1.04013 1.2881 0.681335
1.04039 1.28846 0.794666
1.04105 1.28776 0.905512
1.04091 1.28738 1.01879
1.04027 1.28622 1.14054
1.03867 1.28198 1.2817
1.13886 0.418321 0.418321
1.1405 0.414147 0.559503
1.14115 0.413016 0.681297
1.14139 0.412687 0.794592
1.14139 0.41269 0.905411
1.14115 0.413021 1.0187
1.1405 0.414153 1.1405
1.13886 0.418326 1.28168
1.1405 0.559522 0.414146
1.14234 0.557684 0.557662
1.14308 0.556949 0.680371
1.14336 0.556689 0.794298
1.14337 0.556759 0.905712
1.14309 0.557051 1.01963
1.14235 0.557785 1.14234
1.14051 0.559607 1.28585
1.14116 0.681419 0.413018
1.14309 0.680517 0.556927
1.14388 0.680128 0.679974
1.14418 0.68001 0.794181
1.14423 0.680366 0.905859
1.14394 0.680582 1.02004
1.14316 0.680969 1.14307
1.14122 0.681806 1.28697
1.14145 0.794916 0.412698
1.14342 0.794689 0.556663
1.14423 0.794587 0.679829
1.14455 0.794558 0.794158
1.1447 0.795303 0.905944
1.14442 0.795425 1.02021
1.1436 0.795524 1.14333
1.14161 0.795643 1.28727
1.14157 0.905839 0.412728
1.14355 0.90625 0.556695
1.14438 0.906433 0.679875
1.14467 0.906444 0.794212
1.14555 0.907775 0.905989
1.14524 0.907782 1.02022
1.1444 0.907602 1.1433
1.14236 0.907075 1.28718
1.14168 1.01906 0.413131
1.14368 1.02013 0.557122
1.14453 1.02063 0.680156
1.14512 1.02069 0.794282
1.14209 1.02358 0.906065
1.14211 1.02355 1.02012
1.14132 1.02306 1.14301
1.1394 1.02183 1.28681
1.14095 1.14093 0.414549
1.14303 1.1429 0.558836
1.14469 1.14372 0.683365
1.13768 1.14441 0.800368
1.18552 1.14207 0.903503
1.18391 1.14361 1.01927
1.18291 1.14274 1.14163
1.17951 1.14068 1.28233
1.17627 1.28216 0.421468
1.17942 1.28641 0.561091
1.18047 1.28739 0.682199
1.18084 1.28777 0.795022
1.18229 1.2854 0.905488
1.1827 1.28466 1.01823
1.18167 1.28363 1.13909
1.17811 1.27976 1.27818
1.27811 0.421897 0.421893
1.28168 0.418325 0.561138
1.28266 0.417345 0.682123
1.28295 0.417063 0.794857
1.28295 0.417088 0.905145
1.28266 0.417378 1.01788
1.28168 0.418357 1.13886
1.27811 0.421927 1.27811
1.28168 0.561276 0.418323
1.28586 0.559653 0.559506
1.28699 0.559017 0.681306
1.28732 0.558829 0.794621
1.28732 0.559571 0.905436
1.28699 0.559847 1.0187
1.28586 0.560468 1.14048
1.28168 0.562052 1.28167
1.28266 0.683427 0.417356
1.28699 0.682683 0.558877
1.28818 0.68239 0.680992
1.28853 0.682265 0.794632
1.28854 0.686992 0.905653
1.28818 0.687138 1.01905
1.28699 0.687369 1.14107
1.28266 0.687922 1.28258
1.28294 0.799748 0.417129
1.28732 0.799723 0.55872
1.28853 0.799803 0.681015
1.28889 0.798911 0.794978
1.28889 0.81214 0.905857
1.28853 0.811746 1.01919
1.28731 0.811576 1.14112
1.28295 0.811207 1.28261
1.28294 0.916057 0.417335
1.2873 0.916757 0.55901
1.28853 0.917355 0.681608
1.28889 0.914373 0.796095
1.28878 0.940339 0.905618
1.28843 0.938698 1.01919
1.28721 0.938144 1.14074
1.28285 0.936824 1.28185
1.2826 1.03808 0.418322
1.28692 1.03969 0.560376
1.28811 1.04124 0.683841
1.28851 1.03512 0.799875
1.29226 1.07655 0.904472
1.29212 1.07705 1.01871
1.29072 1.07617 1.14006
1.28594 1.07338 1.27885
1.2822 1.17628 0.422679
1.28653 1.17938 0.574144
1.28758 1.18012 0.722245
1.29291 1.18757 0.865442
VERTICES 500 1000
1 0
1 1
1 2
1 3
1 4
1 5
1 6
1 7
1 8
1 9
1 10
1 11
1 12
1 13
1 14
1 15
1 16
1 17
1 18
1 19
1 20
1 21
1 22
1 23
1 24
1 25
1 26
1 27
1 28
1 29
1 30
1 31
1 32
1 33
1 34
1 35
1 36
1 37
1 38
1 39
1 40
1 41
1 42
1 43
1 44
1 45
1 46
1 47
1 48
1 49
1 50
1 51
1 52
1 53
1 54
1 55
1 56
1 57
1 58
1 59
1 60
1 61
1 62
1 63
1 64
1 65
1 66
1 67
1 68
1 69
1 70
1 71
1 72
1 73
1 74
1 75
1 76
1 77
1 78
1 79
1 80
1 81
1 82
1 83
1 84
1 85
1 86
1 87
1 88
1 89
1 90
1 91
1 92
1 93
1 94
1 95
1 96
1 97
1 98
1 99
1 100
1 101
1 102
1 103
1 104
1 105
1 106
1 107
1 108
1 109
1 110
1 111
1 112
1 113
1 114
1 115
1 116
1 117
1 118
1 119
1 120
1 121
1 122
1 123
1 124
1 125
1 126
1 127
1 128
1 129
1 130
1 131
1 132
1 133
1 134
1 135
1 136
1 137
1 138
1 139
1 140
1 141
1 142
1 143
1 144
1 145
1 146
1 147
1 148
1 149
1 150
1 151
1 152
1 153
1 154
1 155
1 156
1 157
1 158
1 159
1 160
1 161
1 162
1 163
1 164
1 165
1 166
1 167
1 168
1 169
1 170
1 171
1 172
1 173
1 174
1 175
1 176
1 177
1 178
1 179
1 180
1 181
1 182
1 183
1 184
1 185
1 186
1 187
1 188
1 189
1 190
1 191
1 192
1 193
1 194
1 195
1 196
1 197
1 198
1 199
1 200
1 201
1 202
1 203
1 204
1 205
1 206
1 207
1 208
1 209
1 210
1 211
1 212
1 213
1 214
1 215
1 216
1 217
1 218
1 219
1 220
1 221
1 222
1 223
1 224
1 225
1 226
1 227
1 228
1 229
1 230
1 231
1 232
1 233
1 234
1 235
1 236
1 237
1 238
1 239
1 240
1 241
1 242
1 243
1 244
1 245
1 246
1 247
1 248
1 249
1 250
1 251
1 252
1 253
1 254
1 255
1 256
1 257
1 258
1 259
1 260
1 261
1 262
1 263
1 264
1 265
1 266
1 267
1 268
1 269
1 270
1 271
1 272
1 273
1 274
1 275
1 276
1 277
1 278
1 279
1 280
1 281
1 282
1 283
1 284
1 285
1 286
1 287
1 288
1 289
1 290
1 291
1 292
1 293
1 294
1 295
1 296
1 297
1 298
1 299
1 300
1 301
1 302
1 303
1 304
1 305
1 306
1 307
1 308
1 309
1 310
1 311
1 312
1 313
1 314
1 315
1 316
1 317
1 318
1 319
1 320
1 321
1 322
1 323
1 324
1 325
1 326
1 327
1 328
1 329
1 330
1 331
1 332
1 333
1 334
1 335
1 336
1 337
1 338
1 339
1 340
1 341
1 342
1 343
1 344
1 345
1 346
1 347
1 348
1 349
1 350
1 351
1 352
1 353
1 354
1 355
1 356
1 357
1 358
1 359
1 360
1 361
1 362
1 363
1 364
1 365
1 366
1 367
1 368
1 369
1 370
1 371
1 372
1 373
1 374
1 375
1 376
1 377
1 378
1 379
1 380
1 381
1 382
1 383
1 384
1 385
1 386
1 387
1 388
1 389
1 390
1 391
1 392
1 393
1 394
1 395
1 396
1 397
1 398
1 399
1 400
1 401
1 402
1 403
1 404
1 405
1 406
1 407
1 408
1 409
1 410
1 411
1 412
1 413
1 414
1 415
1 416
1 417
1 418
1 419
1 420
1 421
1 422
1 423
1 424
1 425
1 426
1 427
1 428
1 429
1 430
1 431
1 432
1 433
1 434
1 435
1 436
1 437
1 438
1 439
1 440
1 441
1 442
1 443
1 444
1 445
1 446
1 447
1 448
1 449
1 450
1 451
1 452
1 453
1 454
1 455
1 456
1 457
1 458
1 459
1 460
1 461
1 462
1 463
1 464
1 465
1 466
1 467
1 468
1 469
1 470
1 471
1 472
1 473
1 474
1 475
1 476
1 477
1 478
1 479
1 480
1 481
1 482
1 483
1 484
1 485
1 486
1 487
1 488
1 489
1 490
1 491
1 492
1 493
1 494
1 495
1 496
1 497
1 498
1 499
POINT_DATA 500
VECTORS velocity float
-0.15465 -0.15465 -0.15465
-0.161199 -0.161199 -0.110659
-0.163984 -0.163984 -0.070537
-0.165045 -0.165045 -0.0252222
-0.165045 -0.165045 0.0252219
-0.163984 -0.163984 0.0705339
-0.161199 -0.161199 0.110657
-0.15465 -0.15465 0.154651
-0.161199 -0.110659 -0.161199
-0.16891 -0.114288 -0.114288
-0.172095 -0.116279 -0.0727838
-0.173292 -0.117238 -0.026023
-0.173292 -0.117238 0.0260283
-0.172095 -0.116279 0.0727835
-0.168909 -0.114288 0.114287
-0.161199 -0.110659 0.161203
-0.163984 -0.0705369 -0.163984
-0.172095 -0.0727832 -0.116279
-0.175491 -0.0740343 -0.0740348
-0.17677 -0.0746603 -0.0264692
-0.176771 -0.0746605 0.0264712
-0.17549 -0.0740344 0.0740283
-0.172095 -0.0727831 0.116281
-0.163984 -0.0705357 0.163981
-0.165045 -0.0252222 -0.165045
-0.173292 -0.0260231 -0.117238
-0.17677 -0.0264692 -0.0746603
-0.178094 -0.0266922 -0.0266926
-0.178094 -0.0266919 0.0266907
-0.176769 -0.0264691 0.0746601
-0.173291 -0.0260226 0.117238
-0.165045 -0.0252221 0.165044
-0.165045 0.0252221 -0.165045
-0.173292 0.0260277 -0.117238
-0.17677 0.0264715 -0.0746597
-0.178092 0.026691 -0.026693
-0.178091 0.0266916 0.0266909
-0.176768 0.0264728 0.0746601
-0.17329 0.0260288 0.117238
-0.165043 0.0252223 0.165044
-0.163983 0.0705346 -0.163984
-0.172093 0.0727849 -0.116279
-0.175486 0.074029 -0.074034
-0.176766 0.0746613 -0.0264687
-0.17676 0.0746622 0.026472
-0.175478 0.0740305 0.074028
-0.172084 0.0727865 0.116281
-0.163975 0.0705362 0.163981
-0.161192 0.110658 -0.161199
-0.168902 0.114288 -0.114288
-0.172085 0.116283 -0.0727824
-0.173276 0.11724 -0.0260206
-0.17325 0.11724 0.0260296
-0.172049 0.116283 0.0727827
-0.168868 0.114288 0.114286
-0.161159 0.110658 0.161203
-0.154612 0.154652 -0.154649
-0.161159 0.161204 -0.110658
-0.163941 0.163982 -0.0705354
-0.164998 0.165045 -0.0252221
-0.164993 0.165044 0.0252226
-0.163933 0.163981 0.0705331
-0.161151 0.161203 0.110657
-0.154605 0.15465 0.154649
-0.110659 -0.161199 -0.161199
-0.114288 -0.16891 -0.114288
-0.116279 -0.172095 -0.0727838
-0.117238 -0.173292 -0.026023
-0.117238 -0.173292 0.0260283
-0.116279 -0.172095 0.0727835
-0.114288 -0.16891 0.114287
-0.110659 -0.161199 0.161204
-0.114288 -0.114288 -0.16891
-0.118315 -0.118315 -0.118315
-0.120545 -0.120545 -0.0752498
-0.121613 -0.121613 -0.0269092
-0.121613 -0.121613 0.0269105
-0.120545 -0.120544 0.0752515
-0.118315 -0.118315 0.118315
-0.114288 -0.114288 0.16891
-0.116278 -0.0727831 -0.172095
-0.120544 -0.0752496 -0.120545
-0.122912 -0.0766244 -0.076625
-0.124039 -0.0773115 -0.0273861
-0.124039 -0.0773111 0.0273882
-0.122911 -0.0766237 0.0766219
-0.120544 -0.0752483 0.120545
-0.116277 -0.0727823 0.172092
-0.117236 -0.0260228 -0.173292
-0.121612 -0.0269075 -0.121613
-0.124038 -0.027385 -0.0773126
-0.125199 -0.0276229 -0.0276249
-0.125196 -0.0276207 0.0276275
-0.124033 -0.0273809 0.0773155
-0.121608 -0.0269043 0.121613
-0.117233 -0.0260202 0.173294
-0.117233 0.0260295 -0.173292
-0.121608 0.026912 -0.121613
-0.124032 0.027392 -0.0773114
-0.125187 0.0276354 -0.0276235
-0.125172 0.0276442 0.0276293
-0.124006 0.027402 0.0773153
-0.121582 0.0269236 0.121613
-0.117213 0.0260388 0.173294
-0.116257 0.0727894 -0.172094
-0.120515 0.0752587 -0.120543
-0.122874 0.076629 -0.0766209
-0.12397 0.0773275 -0.0273756
-0.123844 0.0773516 0.0273962
-0.122691 0.0766638 0.0766226
-0.120334 0.0752914 0.120539
-0.1161 0.0728198 0.172086
-0.114141 0.114305 -0.168905
-0.118139 0.118336 -0.11831
-0.120345 0.120568 -0.0752365
-0.121299 0.121639 -0.0268605
-0.120196 0.121646 0.0269464
-0.119066 0.120574 0.0752491
-0.11688 0.118342 0.118297
-0.112916 0.11431 0.168896
-0.109358 0.161211 -0.161186
-0.112923 0.168918 -0.11427
-0.114861 0.1721 -0.0727666
-0.115765 0.173299 -0.0260124
-0.115675 0.173286 0.0260297
-0.114724 0.172076 0.0727706
-0.112787 0.168896 0.114268
-0.10924 0.161192 0.161187
-0.0705369 -0.163984 -0.163984
-0.0727837 -0.172095 -0.116279
-0.0740346 -0.175491 -0.0740348
-0.0746605 -0.17677 -0.0264692
-0.0746605 -0.17677 0.0264712
-0.0740343 -0.175491 0.0740283
-0.072783 -0.172095 0.116281
-0.0705358 -0.163984 0.163981
-0.0727832 -0.116278 -0.172095
-0.0752496 -0.120544 -0.120545
-0.0766244 -0.122912 -0.076625
-0.0773113 -0.124039 -0.0273861
-0.0773107 -0.124039 0.0273882
-0.0766237 -0.122911 0.0766217
-0.075248 -0.120543 0.120544
-0.0727822 -0.116278 0.172092
-0.0740339 -0.0740336 -0.175491
-0.0766237 -0.0766237 -0.122913
-0.0780702 -0.0780703 -0.0780723
-0.0787939 -0.0787942 -0.0278832
-0.0787911 -0.0787913 0.0278889
-0.0780624 -0.078063 0.0780714
-0.0766182 -0.0766186 0.122912
-0.0740302 -0.0740305 0.175488
-0.0746545 -0.0264665 -0.17677
-0.0773055 -0.0273811 -0.12404
-0.0787905 -0.0278778 -0.0787954
-0.0795247 -0.0281345 -0.0281418
-0.0795128 -0.0281227 0.0281434
-0.0787631 -0.0278629 0.0787984
-0.0772836 -0.0273631 0.124041
-0.0746346 -0.0264491 0.17677
-0.0746391 0.0264802 -0.17677
-0.0772878 0.0273989 -0.124039
-0.0787618 0.0279055 -0.0787932
-0.0794905 0.0281696 -0.0281361
-0.079427 0.028215 0.0281479
-0.0786681 0.0279689 0.0787981
-0.0771889 0.0274606 0.124037
-0.074559 0.026529 0.176763
-0.0739359 0.0740579 -0.175485
-0.0765069 0.0766575 -0.122905
-0.0779231 0.0781116 -0.07805
-0.0785437 0.0788622 -0.0278402
-0.078013 0.0790205 0.0279286
-0.0771828 0.0783109 0.0780731
-0.0757691 0.0768492 0.122892
-0.073338 0.0742345 0.175462
-0.0720272 0.116379 -0.172073
-0.074346 0.120655 -0.120515
-0.0756218 0.123036 -0.0765389
-0.0761107 0.12417 -0.0270953
-0.0669287 0.124198 0.0276382
-0.0661436 0.123066 0.0765999
-0.0649942 0.120684 0.120419
-0.0629043 0.116404 0.171976
-0.0611303 0.163995 -0.163879
-0.0630301 0.172101 -0.116155
-0.0640417 0.175498 -0.07393
-0.0644709 0.176758 -0.0264079
-0.0640328 0.176661 0.026464
-0.0634476 0.175369 0.0739453
-0.0624445 0.171979 0.116144
-0.0606337 0.163881 0.16386
-0.0252222 -0.165045 -0.165045
-0.026023 -0.173292 -0.117238
-0.0264691 -0.17677 -0.0746606
-0.0266922 -0.178094 -0.0266925
-0.0266917 -0.178094 0.0266907
-0.0264691 -0.176769 0.0746601
-0.0260225 -0.173292 0.117238
-0.0252221 -0.165045 0.165044
-0.0260228 -0.117237 -0.173292
-0.0269076 -0.121612 -0.121613
-0.0273851 -0.124038 -0.0773126
-0.0276226 -0.125199 -0.0276247
-0.0276199 -0.125197 0.0276283
-0.0273808 -0.124035 0.0773149
-0.0269034 -0.121608 0.121614
-0.0260203 -0.117234 0.173295
-0.026467 -0.0746547 -0.17677
-0.0273811 -0.0773055 -0.12404
-0.0278778 -0.0787897 -0.0787955
-0.0281344 -0.0795249 -0.028142
-0.0281244 -0.0795112 0.0281431
-0.0278675 -0.0787664 0.0787978
-0.0273654 -0.0772837 0.124041
-0.0264511 -0.0746361 0.176769
-0.0266784 -0.026679 -0.178094
-0.0276047 -0.0276056 -0.125201
-0.028125 -0.0281261 -0.0795348
-0.0283609 -0.0283622 -0.0283944
-0.0283178 -0.0283079 0.0283996
-0.028047 -0.0280452 0.0795448
-0.0275432 -0.0275315 0.125196
-0.0266182 -0.0266099 0.178086
-0.0266371 0.0267228 -0.178091
-0.0275634 0.027667 -0.125196
-0.0280624 0.0281896 -0.0795278
-0.0283074 0.0284727 -0.0283812
-0.0281391 0.0286262 0.0284104
-0.0278648 0.0283844 0.0795461
-0.0273645 0.0278614 0.125189
-0.0264579 0.02689 0.178078
-0.0262611 0.0747447 -0.17676
-0.0271286 0.0774161 -0.124016
-0.0275971 0.0789123 -0.0787427
-0.0278118 0.079687 -0.0280628
-0.0278305 0.0802007 0.0282172
-0.0274724 0.0794769 0.0788155
-0.0270117 0.077954 0.123998
-0.026361 0.075246 0.1767
-0.0248795 0.117525 -0.173231
-0.0254669 0.121936 -0.121516
-0.0257431 0.124378 -0.0770029
-0.0279457 0.12557 -0.0266566
4.82737e-05 0.125626 0.0283063
-0.000682062 0.124459 0.0772809
-0.000632662 0.122008 0.121188
-0.000418442 0.117596 0.172867
-0.000891701 0.165045 -0.164653
-0.00105969 0.17328 -0.116799
-0.00110055 0.176744 -0.074318
-0.00105459 0.178037 -0.0265061
-0.000202248 0.177696 0.0266492
-0.000102821 0.176346 0.0743665
-9.19101e-05 0.172898 0.116783
-5.00094e-05 0.164695 0.164611
0.0252224 -0.165045 -0.165045
0.0260287 -0.173292 -0.117238
0.0264717 -0.17677 -0.0746607
0.0266914 -0.178092 -0.0266921
0.0266922 -0.178092 0.0266906
0.0264732 -0.176768 0.0746601
0.026029 -0.17329 0.117238
0.0252232 -0.165043 0.165044
0.0260295 -0.117233 -0.173292
0.026912 -0.121608 -0.121613
0.0273919 -0.124033 -0.0773116
0.0276353 -0.12519 -0.0276236
0.0276421 -0.125179 0.0276293
0.0274007 -0.124014 0.0773153
0.026921 -0.121589 0.121613
0.026037 -0.117219 0.173295
0.02648 -0.0746391 -0.17677
0.0273991 -0.0772885 -0.124039
0.0279051 -0.0787653 -0.0787941
0.0281667 -0.0794943 -0.0281383
0.0281981 -0.079424 0.0281467
0.0279502 -0.0786701 0.0787972
0.027443 -0.0771976 0.124038
0.026514 -0.074558 0.176765
0.0267233 -0.0266371 -0.178091
0.0276666 -0.027565 -0.125197
0.0281904 -0.0280607 -0.079529
0.0284708 -0.0282953 -0.0283816
0.0285784 -0.0280711 0.0284117
0.0283384 -0.0277874 0.0795438
0.0278113 -0.0272925 0.125189
0.0268489 -0.0263968 0.178078
0.026802 0.0268022 -0.178086
0.0277584 0.0277591 -0.125185
0.0282927 0.0282944 -0.0795146
0.0285636 0.0285698 -0.0283622
0.0290311 0.0290347 0.0284267
0.0287812 0.0287969 0.07954
0.0282316 0.0282406 0.125176
0.0272666 0.0272451 0.17807
0.0268348 0.0748772 -0.176742
0.0278115 0.0775671 -0.123973
0.0283597 0.0790876 -0.0786899
0.0285587 0.0797581 -0.0280947
0.0255687 0.0809655 0.0282018
0.0253986 0.0801999 0.0788685
0.0248941 0.0786474 0.124018
0.0237691 0.0759038 0.17666
0.0263904 0.117812 -0.173154
0.0276109 0.12224 -0.121315
0.028642 0.12472 -0.0763537
0.0203372 0.125929 -0.0251423
0.0701307 0.125907 0.0282369
0.0657433 0.124772 0.0774242
0.0646673 0.122288 0.120706
0.063026 0.117822 0.17211
0.0597209 0.16501 -0.163977
0.0612826 0.173207 -0.116192
0.0622209 0.176694 -0.0738945
0.0626408 0.178009 -0.0263394
0.0637002 0.177082 0.0265607
0.0632659 0.175724 0.0740428
0.0622729 0.172306 0.116195
0.0604931 0.164173 0.163878
0.0705348 -0.163983 -0.163984
0.0727838 -0.172093 -0.116278
0.0740293 -0.175487 -0.0740341
0.0746615 -0.176765 -0.0264687
0.0746623 -0.176762 0.026472
0.0740322 -0.175479 0.0740279
0.072787 -0.172085 0.116281
0.070537 -0.163976 0.163981
0.0727895 -0.116257 -0.172094
0.0752592 -0.120516 -0.120543
0.0766294 -0.122877 -0.0766215
0.0773297 -0.123985 -0.0273798
0.0773453 -0.123923 0.0273924
0.0766607 -0.122778 0.0766227
0.0752887 -0.120419 0.12054
0.0728129 -0.116174 0.172087
0.0740582 -0.073936 -0.175485
0.0766577 -0.0765093 -0.122905
0.0781112 -0.0779355 -0.0780572
0.0788528 -0.0786167 -0.0278647
0.0789411 -0.0782909 0.0279098
0.0782217 -0.0775298 0.0780704
0.0767656 -0.0761069 0.122901
0.0741574 -0.0735843 0.175475
0.0747456 -0.0262627 -0.176759
0.0774151 -0.0271367 -0.12402
0.0789084 -0.0276126 -0.0787676
0.0796797 -0.0278428 -0.0280897
0.0799025 -0.0269707 0.0281872
0.0791813 -0.0266945 0.0787967
0.0776673 -0.0262452 0.124008
0.0749749 -0.0254293 0.176727
0.0748778 0.0268316 -0.176741
0.0775681 0.027802 -0.123991
0.0790769 0.028338 -0.0787381
0.0797982 0.0284964 -0.0280408
0.0811393 0.0300473 0.0282115
0.0803553 0.0297289 0.078788
0.078803 0.0291501 0.123975
0.0760968 0.0281271 0.176719
0.0746921 0.0746855 -0.175416
0.0773617 0.0773468 -0.122734
0.0788862 0.0788937 -0.0779328
0.0800142 0.0792158 -0.0280052
0.0726322 0.0820649 0.0278955
0.0724007 0.081009 0.0781612
0.0709827 0.0794473 0.122971
0.0683784 0.0767453 0.1754
0.0724324 0.117609 -0.171835
0.0752571 0.121942 -0.119546
0.0782091 0.12437 -0.0733289
0.0604298 0.125705 -0.0207943
0.130993 0.123453 0.0249379
0.120077 0.122579 0.0763214
0.118143 0.120135 0.119274
0.114755 0.115704 0.169248
0.108427 0.163539 -0.16144
0.111616 0.171583 -0.114305
0.113511 0.174942 -0.0726685
0.114147 0.176588 -0.0259306
0.115409 0.174506 0.0262191
0.114614 0.173371 0.0730216
0.112647 0.170109 0.114445
0.109147 0.162235 0.161253
0.110658 -0.161192 -0.161199
0.114288 -0.168902 -0.114287
0.116283 -0.172084 -0.0727816
0.117242 -0.173272 -0.0260199
0.117247 -0.173246 0.0260301
0.116291 -0.172042 0.0727839
0.114296 -0.16886 0.114286
0.110665 -0.161156 0.161202
0.114305 -0.11414 -0.168905
0.118337 -0.118137 -0.118309
0.12057 -0.120343 -0.0752347
0.121655 -0.121319 -0.0268739
0.12172 -0.120833 0.0269341
0.120658 -0.119689 0.0752535
0.118422 -0.117489 0.118301
0.114382 -0.113574 0.16889
0.116379 -0.0720262 -0.172072
0.120658 -0.0743452 -0.120513
0.123042 -0.0756463 -0.0765671
0.124203 -0.0762424 -0.0272829
0.12447 -0.074451 0.0274759
0.123361 -0.0736158 0.0766291
0.120966 -0.0723357 0.120489
0.116654 -0.0702746 0.17201
0.117526 -0.0248777 -0.17323
0.121942 -0.0254799 -0.121524
0.12439 -0.0258566 -0.0771753
0.125567 -0.0263825 -0.027441
0.126104 -0.0236118 0.0277779
0.124957 -0.0233879 0.0773384
0.122465 -0.0230169 0.12151
0.118019 -0.0226488 0.173107
0.117815 0.0263887 -0.173149
0.122258 0.0275486 -0.121442
0.124749 0.0281707 -0.0770747
0.125555 0.0278486 -0.027339
0.129258 0.0331051 0.0278402
0.12781 0.032778 0.0773537
0.125201 0.0321362 0.121445
0.120694 0.0308398 0.172888
0.117628 0.0724171 -0.171785
0.12202 0.075124 -0.120017
0.124471 0.0767907 -0.0765588
0.127585 0.0768659 -0.0275073
0.115495 0.0853997 0.0277302
0.116297 0.0850336 0.0767016
0.113812 0.0833434 0.120549
0.109894 0.0804109 0.172287
0.114876 0.114781 -0.167909
0.119403 0.118951 -0.113568
0.125522 0.121382 -0.0624731
0.0950087 0.124312 -0.00781681
0.164157 0.110664 0.0159277
0.158379 0.12014 0.0683333
0.15632 0.117306 0.117534
0.150775 0.1132 0.163001
0.150652 0.16248 -0.155286
0.156484 0.170296 -0.110646
0.15975 0.172724 -0.0708231
0.160446 0.174989 -0.0249773
0.162374 0.171198 0.0258179
0.16419 0.168936 0.0712363
0.161179 0.166129 0.11142
0.154639 0.158788 0.154864
0.154651 -0.154612 -0.154649
0.161204 -0.161159 -0.110658
0.163982 -0.163936 -0.0705298
0.165046 -0.164962 -0.0252089
0.165051 -0.164739 0.0252351
0.163989 -0.163659 0.0705338
0.16121 -0.160888 0.110652
0.154657 -0.154345 0.154647
0.161211 -0.109357 -0.161185
0.168918 -0.112915 -0.11426
0.1721 -0.11482 -0.0727138
0.173306 -0.11554 -0.0258226
0.173339 -0.110149 0.0262034
0.172134 -0.109117 0.072773
0.168948 -0.107315 0.114209
0.161239 -0.103916 0.161128
0.163995 -0.0611258 -0.163876
0.172102 -0.0629842 -0.116106
0.1755 -0.0638727 -0.0736594
0.176776 -0.0659517 -0.0255632
0.176796 -0.040668 0.0270547
0.175511 -0.0410321 0.0739878
0.172113 -0.0403947 0.115853
0.164017 -0.0390773 0.163528
0.165046 -0.00087478 -0.164637
0.173282 -0.000930386 -0.11658