# vtk DataFile Version 3.0
Molecular Dynamics Particle Data
ASCII
DATASET POLYDATA
POINTS 500 float
0.465658 0.465658 0.465658
0.464019 0.464019 0.589142
0.463739 0.463739 0.697387
0.463688 0.463688 0.799625
0.463688 0.463688 0.900374
0.463739 0.463739 1.00261
0.464019 0.464019 1.11086
0.465658 0.465658 1.23434
0.464019 0.589142 0.464019
0.462115 0.588554 0.588554
0.461788 0.588401 0.697192
0.461727 0.588366 0.799586
0.461727 0.588366 0.900414
0.461788 0.588401 1.00281
0.462115 0.588554 1.11145
0.464019 0.589142 1.23598
0.463739 0.697387 0.463739
0.461788 0.697192 0.588401
0.461446 0.697134 0.697134
0.461382 0.69712 0.799574
0.461382 0.69712 0.900425
0.461446 0.697134 1.00287
0.461788 0.697192 1.1116
0.463739 0.697387 1.23626
0.463688 0.799625 0.463688
0.461727 0.799586 0.588366
0.461382 0.799574 0.69712
0.461316 0.799571 0.799571
0.461316 0.799571 0.900429
0.461382 0.799574 1.00288
0.461727 0.799586 1.11163
0.463688 0.799625 1.23631
0.463688 0.900374 0.463688
0.461727 0.900414 0.588366
0.461382 0.900425 0.69712
0.461316 0.900429 0.799571
0.461316 0.900429 0.900429
0.461382 0.900425 1.00288
0.461727 0.900414 1.11163
0.463688 0.900374 1.23631
0.463739 1.00261 0.463739
0.461788 1.00281 0.588401
0.461446 1.00287 0.697134
0.461382 1.00288 0.799574
0.461382 1.00288 0.900425
0.461446 1.00287 1.00287
0.461788 1.00281 1.1116
0.463739 1.00261 1.23626
0.464019 1.11086 0.464019
0.462115 1.11145 0.588554
0.461788 1.1116 0.697192
0.461727 1.11163 0.799586
0.461727 1.11163 0.900414
0.461788 1.1116 1.00281
0.462115 1.11145 1.11145
0.464019 1.11086 1.23598
0.465658 1.23434 0.465658
0.464019 1.23598 0.589142
0.463739 1.23626 0.697387
0.463688 1.23631 0.799625
0.463688 1.23631 0.900374
0.463739 1.23626 1.00261
0.464019 1.23598 1.11086
0.465658 1.23434 1.23434
0.589142 0.464019 0.464019
0.588554 0.462115 0.588554
0.588401 0.461788 0.697192
0.588366 0.461727 0.799586
0.588366 0.461727 0.900414
0.588401 0.461788 1.00281
0.588554 0.462115 1.11145
0.589142 0.464019 1.23598
0.588554 0.588554 0.462115
0.587882 0.587882 0.587882
0.587704 0.587704 0.696966
0.587663 0.587663 0.799541
0.587663 0.587663 0.900459
0.587704 0.587704 1.00303
0.587882 0.587882 1.11212
0.588554 0.588554 1.23789
0.588401 0.697192 0.461788
0.587704 0.696966 0.587704
0.587516 0.696898 0.696898
0.587473 0.696881 0.799525
0.587473 0.696881 0.900475
0.587516 0.696898 1.0031
0.587704 0.696966 1.1123
0.588401 0.697192 1.23821
0.588366 0.799586 0.461727
0.587663 0.799541 0.587663
0.587473 0.799525 0.696881
0.587429 0.799522 0.799522
0.587429 0.799522 0.900479
0.587473 0.799525 1.00312
0.587663 0.799541 1.11234
0.588367 0.799586 1.23827
0.588367 0.900414 0.461727
0.587663 0.900459 0.587663
0.587473 0.900475 0.696881
0.58743 0.900479 0.799522
0.58743 0.900479 0.900479
0.587474 0.900475 1.00312
0.587663 0.900459 1.11234
0.588367 0.900414 1.23827
0.588401 1.00281 0.461788
0.587704 1.00303 0.587704
0.587517 1.0031 0.696898
0.587474 1.00312 0.799525
0.587474 1.00312 0.900475
0.587517 1.0031 1.0031
0.587705 1.00303 1.1123
0.588402 1.00281 1.23821
0.588555 1.11145 0.462115
0.587883 1.11212 0.587882
0.587704 1.1123 0.696966
0.587664 1.11234 0.799541
0.587665 1.11234 0.900459
0.587707 1.1123 1.00303
0.587885 1.11212 1.11212
0.588556 1.11145 1.23789
0.589144 1.23598 0.464019
0.588556 1.23789 0.588554
0.588403 1.23821 0.697192
0.588369 1.23827 0.799586
0.588369 1.23827 0.900414
0.588404 1.23821 1.00281
0.588557 1.23789 1.11145
0.589144 1.23598 1.23598
0.697387 0.463739 0.463739
0.697192 0.461788 0.588401
0.697134 0.461446 0.697134
0.69712 0.461382 0.799574
0.69712 0.461382 0.900425
0.697134 0.461446 1.00287
0.697192 0.461788 1.1116
0.697387 0.463739 1.23626
0.697192 0.588401 0.461788
0.696966 0.587704 0.587704
0.696898 0.587516 0.696898
0.696881 0.587473 0.799525
0.696881 0.587473 0.900475
0.696898 0.587516 1.0031
0.696966 0.587704 1.1123
0.697192 0.588401 1.23821
0.697134 0.697134 0.461446
0.696898 0.696898 0.587516
0.696826 0.696826 0.696826
0.696808 0.696808 0.79951
0.696808 0.696808 0.90049
0.696826 0.696826 1.00317
0.696898 0.696898 1.11248
0.697134 0.697134 1.23855
0.69712 0.799574 0.461382
0.696881 0.799525 0.587473
0.696808 0.79951 0.696808
0.696789 0.799506 0.799505
0.696789 0.799506 0.900494
0.696808 0.79951 1.00319
0.696881 0.799525 1.11253
0.69712 0.799574 1.23862
0.69712 0.900425 0.461382
0.696881 0.900475 0.587473
0.696808 0.90049 0.696808
0.69679 0.900494 0.799506
0.69679 0.900494 0.900494
0.69681 0.900491 1.00319
0.696882 0.900475 1.11253
0.69712 0.900425 1.23862
0.697135 1.00287 0.461446
0.6969 1.0031 0.587516
0.696828 1.00318 0.696826
0.696811 1.00319 0.79951
0.696816 1.00319 0.90049
0.696835 1.00318 1.00317
0.696907 1.0031 1.11248
0.697141 1.00287 1.23855
0.697198 1.1116 0.461789
0.696973 1.1123 0.587704
0.696907 1.11248 0.696899
0.696893 1.11253 0.799527
0.696924 1.11253 0.900475
0.696944 1.11248 1.0031
0.697011 1.1123 1.1123
0.697231 1.1116 1.23821
0.69742 1.23626 0.463739
0.69723 1.23821 0.588402
0.697174 1.23855 0.697135
0.697162 1.23862 0.799574
0.697165 1.23862 0.900425
0.69718 1.23855 1.00287
0.697237 1.23821 1.1116
0.697425 1.23626 1.23626
0.799625 0.463688 0.463688
0.799586 0.461727 0.588366
0.799574 0.461382 0.69712
0.799571 0.461316 0.799571
0.799571 0.461316 0.900429
0.799574 0.461382 1.00288
0.799586 0.461727 1.11163
0.799625 0.463688 1.23631
0.799586 0.588366 0.461727
0.799541 0.587663 0.587663
0.799525 0.587473 0.696881
0.799522 0.587429 0.799522
0.799522 0.587429 0.900479
0.799525 0.587473 1.00312
0.799541 0.587663 1.11234
0.799586 0.588367 1.23827
0.799574 0.69712 0.461382
0.799525 0.696881 0.587473
0.79951 0.696808 0.696808
0.799506 0.696789 0.799505
0.799506 0.696789 0.900494
0.79951 0.696808 1.00319
0.799525 0.696881 1.11253
0.799574 0.69712 1.23862
0.799571 0.799571 0.461316
0.799522 0.799522 0.587429
0.799506 0.799506 0.696788
0.799502 0.799502 0.799501
0.799502 0.799502 0.900499
0.799507 0.799506 1.00321
0.799523 0.799523 1.11257
0.799572 0.799572 1.23868
0.799572 0.900429 0.461316
0.799523 0.90048 0.587429
0.799507 0.900495 0.696789
0.799504 0.900501 0.799502
0.799508 0.900503 0.900499
0.799513 0.900498 1.00321
0.799529 0.900482 1.11257
0.799576 0.900432 1.23868
0.799579 1.00288 0.461382
0.799532 1.00312 0.587474
0.799518 1.00319 0.696809
0.799522 1.00322 0.799508
0.799553 1.00322 0.900496
0.799565 1.0032 1.00319
0.799579 1.00313 1.11253
0.799618 1.00289 1.23862
0.799623 1.11164 0.461729
0.799586 1.11234 0.587664
0.799577 1.11253 0.696883
0.799603 1.11258 0.799532
0.799918 1.11258 0.900488
0.799946 1.11253 1.00312
0.799951 1.11234 1.11233
0.79996 1.11164 1.23827
0.799964 1.23631 0.463694
0.799956 1.23827 0.588371
0.799955 1.23862 0.697123
0.799961 1.23868 0.799573
0.799985 1.23868 0.90043
0.799991 1.23861 1.00288
0.799993 1.23827 1.11163
0.799994 1.23631 1.2363
0.900374 0.463688 0.463688
0.900414 0.461727 0.588366
0.900425 0.461382 0.69712
0.900429 0.461316 0.799571
0.900429 0.461316 0.900429
0.900425 0.461382 1.00288
0.900414 0.461727 1.11163
0.900374 0.463688 1.23631
0.900414 0.588367 0.461727
0.900459 0.587663 0.587663
0.900475 0.587473 0.696881
0.900479 0.587429 0.799522
0.900479 0.58743 0.900479
0.900475 0.587474 1.00312
0.90046 0.587663 1.11234
0.900414 0.588367 1.23827
0.900425 0.69712 0.461382
0.900475 0.696881 0.587473
0.90049 0.696808 0.696808
0.900494 0.69679 0.799506
0.900495 0.69679 0.900494
0.900491 0.696809 1.00319
0.900475 0.696882 1.11253
0.900426 0.69712 1.23862
0.900429 0.799572 0.461316
0.90048 0.799523 0.58743
0.900495 0.799507 0.696789
0.900501 0.799503 0.799502
0.900503 0.799506 0.900499
0.9005 0.799511 1.00321
0.900483 0.799527 1.11257
0.900433 0.799575 1.23868
0.900432 0.900432 0.461317
0.900482 0.900482 0.58743
0.9005 0.9005 0.69679
0.900508 0.900507 0.799503
0.900521 0.900518 0.900501
0.90052 0.900516 1.00321
0.900504 0.900499 1.11257
0.900449 0.900446 1.23868
0.900444 1.00289 0.461384
0.900497 1.00313 0.587475
0.900518 1.00321 0.696812
0.900549 1.00323 0.799517
0.900666 1.00328 0.900505
0.900688 1.00327 1.00319
0.900668 1.00319 1.11252
0.900586 1.00294 1.23861
0.900568 1.11167 0.461736
0.900645 1.11238 0.58767
0.900679 1.11257 0.696898
0.900788 1.11262 0.799588
0.902781 1.11262 0.900541
0.902864 1.11258 1.00312
0.902813 1.11238 1.1123
0.902623 1.11167 1.23822
0.902438 1.23631 0.463731
0.902602 1.23827 0.588397
0.902654 1.23862 0.697136
0.902688 1.23867 0.799583
0.902789 1.23864 0.900435
0.9028 1.23857 1.00287
0.902748 1.23823 1.1116
0.902563 1.23627 1.23626
1.00261 0.463739 0.463739
1.00281 0.461788 0.588401
1.00287 0.461446 0.697134
1.00288 0.461382 0.799574
1.00288 0.461382 0.900425
1.00287 0.461446 1.00287
1.00281 0.461788 1.1116
1.00261 0.463739 1.23626
1.00281 0.588401 0.461788
1.00303 0.587704 0.587704
1.0031 0.587517 0.696898
1.00312 0.587474 0.799525
1.00312 0.587474 0.900475
1.0031 0.587518 1.0031
1.00303 0.587705 1.1123
1.00281 0.588402 1.23821
1.00287 0.697135 0.461446
1.0031 0.6969 0.587516
1.00318 0.696828 0.696826
1.00319 0.696811 0.79951
1.00319 0.696815 0.900491
1.00318 0.696835 1.00317
1.0031 0.696906 1.11248
1.00287 0.697141 1.23855
1.00288 0.799579 0.461382
1.00312 0.799532 0.587474
1.0032 0.799518 0.696809
1.00322 0.799518 0.799507
1.00323 0.799534 0.900496
1.00321 0.799543 1.00319
1.00313 0.799558 1.11253
1.00289 0.7996 1.23862
1.00289 0.900443 0.461384
1.00313 0.900497 0.587476
1.00321 0.900517 0.696812
1.00324 0.900532 0.799513
1.00328 0.900594 0.900501
1.00327 0.900601 1.00319
1.00319 0.900581 1.11252
1.00294 0.900516 1.23861
1.00292 1.00292 0.461454
1.00317 1.00317 0.587526
1.00325 1.00325 0.696846
1.00331 1.00329 0.79955
1.00346 1.0035 0.900526
1.00349 1.0035 1.00318
1.00341 1.00342 1.11247
1.00311 1.00315 1.23851
1.00315 1.11177 0.461824
1.00345 1.1125 0.587738
1.00357 1.11269 0.696989
1.00364 1.11274 0.799835
1.01176 1.11276 0.90073
1.0119 1.11272 1.00314
1.01174 1.11252 1.11216
1.01114 1.11179 1.23794
1.0105 1.23627 0.463976
1.01102 1.23822 0.588537
1.01117 1.23856 0.6972
1.01125 1.23859 0.799625
1.01154 1.2384 0.900453
1.01156 1.23831 1.00283
1.01142 1.23797 1.11146
1.01084 1.23605 1.23599
1.11086 0.464019 0.464019
1.11145 0.462115 0.588554
1.1116 0.461788 0.697192
1.11163 0.461727 0.799586
1.11163 0.461727 0.900414
1.1116 0.461789 1.00281
1.11145 0.462115 1.11145
1.11086 0.464019 1.23598
1.11145 0.588555 0.462115
1.11212 0.587883 0.587882
1.1123 0.587705 0.696966
1.11234 0.587665 0.799541
1.11234 0.587668 0.90046
1.1123 0.58771 1.00303
1.11212 0.587888 1.11212
1.11145 0.588558 1.23789
1.1116 0.697198 0.461788
1.1123 0.696973 0.587704
1.11248 0.696907 0.696899
1.11253 0.696897 0.799528
1.11253 0.696927 0.900476
1.11249 0.696951 1.0031
1.1123 0.697018 1.1123
1.1116 0.697234 1.23821
1.11164 0.799623 0.461729
1.11234 0.799586 0.587665
1.11253 0.799578 0.696885
1.11259 0.799602 0.799532
1.11261 0.799743 0.900489
1.11258 0.799774 1.00312
1.11238 0.799784 1.11233
1.11167 0.799792 1.23826
1.11167 0.900568 0.461737
1.11238 0.900646 0.587673
1.11258 0.900677 0.696899
1.11264 0.900728 0.79956
1.11281 0.901089 0.900513
1.11279 0.901144 1.00313
1.11259 0.901117 1.11232
1.11186 0.900974 1.23823
1.11178 1.00315 0.461826
1.1125 1.00345 0.587755
1.11272 1.00355 0.696995
1.1128 1.0036 0.799646
1.11244 1.00432 0.900602
1.11246 1.00439 1.00316
1.11227 1.0043 1.11224
1.1115 1.00391 1.23806
1.11183 1.11183 0.462287
1.11262 1.11259 0.588109
1.11298 1.11279 0.697545
1.11226 1.1129 0.80088
1.13706 1.11306 0.900962
1.13727 1.11317 1.00343
1.13693 1.11297 1.11169
1.13527 1.11215 1.23624
1.13345 1.23618 0.465439
1.13489 1.23812 0.589091
1.13518 1.23841 0.697459
1.13533 1.23836 0.799754
1.13612 1.23716 0.900569
1.13626 1.23691 1.00273
1.13597 1.2366 1.1109
1.13434 1.23487 1.23436
1.23434 0.465658 0.465658
1.23598 0.464019 0.589142
1.23626 0.463739 0.697387
1.23631 0.463688 0.799625
1.23631 0.463689 0.900374
1.23626 0.46374 1.00261
1.23598 0.46402 1.11086
1.23434 0.465658 1.23434
1.23598 0.589144 0.464019
1.23789 0.588556 0.588554
1.23821 0.588404 0.697192
1.23827 0.588372 0.799587
1.23827 0.588394 0.900415
1.23821 0.588432 1.00281
1.23789 0.588585 1.11145
1.23598 0.589169 1.23598
1.23626 0.69742 0.46374
1.23821 0.697231 0.588402
1.23855 0.697178 0.697136
1.23862 0.697193 0.799584
1.23862 0.697502 0.900435
1.23855 0.697541 1.00287
1.23821 0.69759 1.11159
1.23626 0.69775 1.23625
1.23631 0.799964 0.463694
1.23827 0.799958 0.588374
1.23862 0.799969 0.697137
1.23868 0.800075 0.799638
1.23868 0.802111 0.900493
1.23862 0.802201 1.00288
1.23827 0.802172 1.1116
1.23631 0.802052 1.23626
1.23631 0.902439 0.463732
1.23827 0.90261 0.588413
1.23862 0.902702 0.697216
1.23868 0.902758 0.799883
1.23869 0.910878 0.900684
1.23863 0.911019 1.00291
1.23828 0.910891 1.11149
1.23632 0.910394 1.23604
1.23627 1.0105 0.463987
1.23822 1.01105 0.588686
1.23856 1.01137 0.697714
1.23868 1.01071 0.800835
1.23914 1.03433 0.900997
1.23917 1.03463 1.00324
1.2388 1.03435 1.11112
1.23677 1.03299 1.23463
1.23619 1.13345 0.465542
1.23813 1.13488 0.591074
1.23847 1.13514 0.7077
1.23905 1.13578 0.831551
VERTICES 500 1000
1 0
1 1
1 2
1 3
1 4
1 5
1 6
1 7
1 8
1 9
1 10
1 11
1 12
1 13
1 14
1 15
1 16
1 17
1 18
1 19
1 20
1 21
1 22
1 23
1 24
1 25
1 26
1 27
1 28
1 29
1 30
1 31
1 32
1 33
1 34
1 35
1 36
1 37
1 38
1 39
1 40
1 41
1 42
1 43
1 44
1 45
1 46
1 47
1 48
1 49
1 50
1 51
1 52
1 53
1 54
1 55
1 56
1 57
1 58
1 59
1 60
1 61
1 62
1 63
1 64
1 65
1 66
1 67
1 68
1 69
1 70
1 71
1 72
1 73
1 74
1 75
1 76
1 77
1 78
1 79
1 80
1 81
1 82
1 83
1 84
1 85
1 86
1 87
1 88
1 89
1 90
1 91
1 92
1 93
1 94
1 95
1 96
1 97
1 98
1 99
1 100
1 101
1 102
1 103
1 104
1 105
1 106
1 107
1 108
1 109
1 110
1 111
1 112
1 113
1 114
1 115
1 116
1 117
1 118
1 119
1 120
1 121
1 122
1 123
1 124
1 125
1 126
1 127
1 128
1 129
1 130
1 131
1 132
1 133
1 134
1 135
1 136
1 137
1 138
1 139
1 140
1 141
1 142
1 143
1 144
1 145
1 146
1 147
1 148
1 149
1 150
1 151
1 152
1 153
1 154
1 155
1 156
1 157
1 158
1 159
1 160
1 161
1 162
1 163
1 164
1 165
1 166
1 167
1 168
1 169
1 170
1 171
1 172
1 173
1 174
1 175
1 176
1 177
1 178
1 179
1 180
1 181
1 182
1 183
1 184
1 185
1 186
1 187
1 188
1 189
1 190
1 191
1 192
1 193
1 194
1 195
1 196
1 197
1 198
1 199
1 200
1 201
1 202
1 203
1 204
1 205
1 206
1 207
1 208
1 209
1 210
1 211
1 212
1 213
1 214
1 215
1 216
1 217
1 218
1 219
1 220
1 221
1 222
1 223
1 224
1 225
1 226
1 227
1 228
1 229
1 230
1 231
1 232
1 233
1 234
1 235
1 236
1 237
1 238
1 239
1 240
1 241
1 242
1 243
1 244
1 245
1 246
1 247
1 248
1 249
1 250
1 251
1 252
1 253
1 254
1 255
1 256
1 257
1 258
1 259
1 260
1 261
1 262
1 263
1 264
1 265
1 266
1 267
1 268
1 269
1 270
1 271
1 272
1 273
1 274
1 275
1 276
1 277
1 278
1 279
1 280
1 281
1 282
1 283
1 284
1 285
1 286
1 287
1 288
1 289
1 290
1 291
1 292
1 293
1 294
1 295
1 296
1 297
1 298
1 299
1 300
1 301
1 302
1 303
1 304
1 305
1 306
1 307
1 308
1 309
1 310
1 311
1 312
1 313
1 314
1 315
1 316
1 317
1 318
1 319
1 320
1 321
1 322
1 323
1 324
1 325
1 326
1 327
1 328
1 329
1 330
1 331
1 332
1 333
1 334
1 335
1 336
1 337
1 338
1 339
1 340
1 341
1 342
1 343
1 344
1 345
1 346
1 347
1 348
1 349
1 350
1 351
1 352
1 353
1 354
1 355
1 356
1 357
1 358
1 359
1 360
1 361
1 362
1 363
1 364
1 365
1 366
1 367
1 368
1 369
1 370
1 371
1 372
1 373
1 374
1 375
1 376
1 377
1 378
1 379
1 380
1 381
1 382
1 383
1 384
1 385
1 386
1 387
1 388
1 389
1 390
1 391
1 392
1 393
1 394
1 395
1 396
1 397
1 398
1 399
1 400
1 401
1 402
1 403
1 404
1 405
1 406
1 407
1 408
1 409
1 410
1 411
1 412
1 413
1 414
1 415
1 416
1 417
1 418
1 419
1 420
1 421
1 422
1 423
1 424
1 425
1 426
1 427
1 428
1 429
1 430
1 431
1 432
1 433
1 434
1 435
1 436
1 437
1 438
1 439
1 440
1 441
1 442
1 443
1 444
1 445
1 446
1 447
1 448
1 449
1 450
1 451
1 452
1 453
1 454
1 455
1 456
1 457
1 458
1 459
1 460
1 461
1 462
1 463
1 464
1 465
1 466
1 467
1 468
1 469
1 470
1 471
1 472
1 473
1 474
1 475
1 476
1 477
1 478
1 479
1 480
1 481
1 482
1 483
1 484
1 485
1 486
1 487
1 488
1 489
1 490
1 491
1 492
1 493
1 494
1 495
1 496
1 497
1 498
1 499
POINT_DATA 500
VECTORS velocity float
-0.133725 -0.133725 -0.133725
-0.139887 -0.139887 -0.070394
-0.141625 -0.141625 -0.0268333
-0.142075 -0.142075 -0.00540512
-0.142075 -0.142075 0.00540173
-0.141625 -0.141625 0.0268323
-0.139887 -0.139887 0.0703945
-0.133725 -0.133725 0.133725
-0.139887 -0.070394 -0.139887
-0.147104 -0.073539 -0.073539
-0.149114 -0.0746972 -0.0284431
-0.149639 -0.0750603 -0.00585516
-0.149639 -0.0750603 0.00586298
-0.149114 -0.0746972 0.0284383
-0.147104 -0.0735388 0.0735381
-0.139887 -0.0703937 0.13989
-0.141625 -0.0268333 -0.141625
-0.149114 -0.0284428 -0.0746972
-0.151236 -0.0290374 -0.0290376
-0.151795 -0.0292266 -0.00602274
-0.151795 -0.0292268 0.00602
-0.151236 -0.0290376 0.0290358
-0.149114 -0.0284431 0.0747004
-0.141625 -0.0268337 0.141621
-0.142075 -0.00540509 -0.142075
-0.149638 -0.00585568 -0.0750603
-0.151795 -0.00602264 -0.0292269
-0.152366 -0.00607328 -0.00607286
-0.152366 -0.00607323 0.00607232
-0.151794 -0.00602251 0.0292263
-0.149638 -0.0058552 0.0750618
-0.142075 -0.00540466 0.142074
-0.142075 0.00540178 -0.142075
-0.149638 0.00586335 -0.0750603
-0.151795 0.00602057 -0.0292269
-0.152366 0.00607263 -0.00607295
-0.152365 0.00607262 0.00607227
-0.151794 0.00602052 0.0292263
-0.149638 0.00586317 0.0750618
-0.142075 0.00540166 0.142074
-0.141625 0.0268324 -0.141625
-0.149114 0.0284382 -0.0746972
-0.151235 0.0290346 -0.0290376
-0.151794 0.0292262 -0.00602252
-0.151794 0.0292265 0.00602044
-0.151235 0.0290348 0.0290347
-0.149113 0.0284383 0.0747012
-0.141624 0.0268324 0.141621
-0.139887 0.0703945 -0.139887
-0.147104 0.0735382 -0.0735387
-0.149113 0.0747014 -0.028443
-0.149637 0.0750619 -0.00585516
-0.149637 0.0750618 0.00586314
-0.149112 0.0747014 0.0284379
-0.147103 0.073538 0.0735382
-0.139886 0.0703946 0.13989
-0.133725 0.133725 -0.133725
-0.139886 0.13989 -0.0703936
-0.141623 0.141621 -0.0268337
-0.142073 0.142074 -0.00540484
-0.142073 0.142074 0.0054008
-0.141623 0.141621 0.0268333
-0.139885 0.13989 0.0703946
-0.133724 0.133725 0.133725
-0.070394 -0.139887 -0.139887
-0.0735387 -0.147104 -0.073539
-0.0746972 -0.149114 -0.0284431
-0.0750603 -0.149639 -0.00585516
-0.0750603 -0.149639 0.00586298
-0.0746972 -0.149114 0.0284382
-0.0735386 -0.147104 0.0735381
-0.0703938 -0.139887 0.13989
-0.073539 -0.073539 -0.147104
-0.0770809 -0.0770809 -0.0770809
-0.0784065 -0.0784065 -0.0302759
-0.0788262 -0.0788262 -0.00638302
-0.0788262 -0.0788262 0.00638613
-0.0784065 -0.0784065 0.0302733
-0.0770805 -0.0770806 0.0770826
-0.0735389 -0.0735388 0.147103
-0.0746971 -0.0284428 -0.149114
-0.0784065 -0.0302758 -0.0784065
-0.0798095 -0.0309562 -0.0309563
-0.0802494 -0.0311752 -0.0065743
-0.0802493 -0.0311751 0.0065765
-0.0798092 -0.030956 0.0309553
-0.0784064 -0.0302758 0.0784064
-0.0746971 -0.0284428 0.149113
-0.0750601 -0.00585566 -0.149638
-0.078826 -0.00638278 -0.0788262
-0.0802493 -0.0065738 -0.0311757
-0.0807022 -0.0066371 -0.0066373
-0.0807014 -0.0066369 0.00664208
-0.0802489 -0.00657344 0.0311753
-0.0788253 -0.00638219 0.0788243
-0.0750598 -0.0058555 0.149639
-0.0750597 0.00586346 -0.149638
-0.0788254 0.00638659 -0.0788261
-0.0802487 0.00657653 -0.0311752
-0.0807008 0.0066429 -0.00663742
-0.0806997 0.00664363 0.00664198
-0.0802459 0.00657697 0.0311757
-0.0788232 0.00638661 0.0788242
-0.075058 0.00586404 0.149639
-0.0746946 0.0284386 -0.149114
-0.0784036 0.0302734 -0.0784064
-0.0798049 0.0309556 -0.0309558
-0.0802431 0.0311766 -0.00657369
-0.0802363 0.0311768 0.00657692
-0.0797928 0.030957 0.0309551
-0.0783918 0.0302754 0.0784056
-0.0746855 0.02844 0.149112
-0.0735301 0.0735389 -0.147104
-0.0770701 0.0770838 -0.0770804
-0.078393 0.0784078 -0.0302751
-0.0788061 0.0788248 -0.00638097
-0.0787736 0.0788259 0.00638686
-0.07835 0.0784074 0.030273
-0.0770261 0.0770838 0.0770822
-0.0734907 0.0735388 0.147102
-0.0703528 0.13989 -0.139886
-0.0734924 0.147103 -0.073538
-0.0746482 0.149113 -0.0284424
-0.0750091 0.149639 -0.00585469
-0.0750044 0.149639 0.00586348
-0.0746386 0.149111 0.0284376
-0.0734825 0.147102 0.0735374
-0.0703457 0.139889 0.139889
-0.0268334 -0.141625 -0.141625
-0.028443 -0.149114 -0.0746972
-0.0290376 -0.151236 -0.0290376
-0.0292269 -0.151795 -0.00602273
-0.0292268 -0.151795 0.00602001
-0.0290376 -0.151236 0.0290358
-0.0284429 -0.149114 0.0747004
-0.0268337 -0.141625 0.141622
-0.0284428 -0.0746971 -0.149114
-0.0302758 -0.0784064 -0.0784065
-0.0309562 -0.0798095 -0.0309563
-0.0311752 -0.0802494 -0.0065743
-0.0311751 -0.0802493 0.00657652
-0.030956 -0.0798094 0.0309553
-0.0302753 -0.0784064 0.078406
-0.0284428 -0.0746972 0.149113
-0.0290372 -0.029037 -0.151236
-0.0309561 -0.0309561 -0.0798095
-0.0316716 -0.0316716 -0.0316723
-0.0319096 -0.0319096 -0.00678194
-0.0319097 -0.0319096 0.00678358
-0.0316713 -0.0316713 0.031672
-0.0309555 -0.0309556 0.0798102
-0.0290362 -0.0290364 0.151233
-0.0292258 -0.00602267 -0.151795
-0.0311744 -0.00657351 -0.0802497
-0.0319088 -0.00678126 -0.0319098
-0.0321478 -0.00684501 -0.00684541
-0.0321475 -0.00684379 0.0068447
-0.0319055 -0.00677871 0.0319101
-0.031171 -0.00657166 0.0802547
-0.029222 -0.00602193 0.151792
-0.0292239 0.00602123 -0.151795
-0.0311716 0.00657751 -0.0802493
-0.0319046 0.0067859 -0.0319099
-0.0321398 0.00684753 -0.00684439
-0.0321314 0.00685048 0.00684559
-0.0318878 0.00678951 0.0319101
-0.0311524 0.00658266 0.0802537
-0.0292093 0.00602572 0.151791
-0.0290243 0.0290383 -0.151235
-0.030939 0.0309603 -0.0798086
-0.0316481 0.031677 -0.0316692
-0.0318633 0.0319191 -0.00677629
-0.0317892 0.0319312 0.00678801
-0.0315347 0.0316951 0.031672
-0.0308219 0.0309776 0.0798073
-0.0289283 0.0290531 0.15123
-0.0283572 0.0747098 -0.149111
-0.0301672 0.0784161 -0.0784035
-0.0308331 0.0798222 -0.0309496
-0.0309753 0.080266 -0.00655412
-0.0303949 0.080266 0.00659451
-0.0301162 0.0798225 0.0309528
-0.0294626 0.0784162 0.0783951
-0.0277184 0.0747096 0.1491
-0.0261883 0.141621 -0.141615
-0.0277253 0.149112 -0.074687
-0.0282879 0.151232 -0.0290309
-0.0284487 0.151788 -0.00601829
-0.0283914 0.15178 0.00602295
-0.0281971 0.151221 0.0290311
-0.0276324 0.149101 0.0746889
-0.026108 0.141612 0.141609
-0.00540515 -0.142075 -0.142075
-0.00585531 -0.149638 -0.0750604
-0.0060227 -0.151795 -0.0292269
-0.00607285 -0.152366 -0.00607287
-0.00607322 -0.152366 0.00607233
-0.00602251 -0.151794 0.0292263
-0.0058554 -0.149638 0.0750618
-0.00540468 -0.142075 0.142074
-0.0058557 -0.0750602 -0.149638
-0.00638281 -0.078826 -0.0788262
-0.0065738 -0.0802493 -0.0311757
-0.00663702 -0.0807024 -0.0066373
-0.00663663 -0.0807021 0.00664217
-0.00657343 -0.0802492 0.0311758
-0.00638234 -0.0788252 0.0788245
-0.00585521 -0.0750599 0.149639
-0.00602258 -0.0292261 -0.151795
-0.00657352 -0.0311744 -0.0802497
-0.00678125 -0.0319094 -0.0319098
-0.00684423 -0.0321477 -0.00684546
-0.00684362 -0.0321472 0.00684467
-0.00677787 -0.0319071 0.03191
-0.00657092 -0.031172 0.0802546
-0.00602088 -0.0292234 0.151792
-0.00607084 -0.00607112 -0.152366
-0.00663424 -0.00663423 -0.0807031
-0.00684283 -0.00684213 -0.0321481
-0.00690607 -0.00690783 -0.00691358
-0.00689969 -0.00690155 0.00691946
-0.00682939 -0.00683277 0.0321439
-0.0066233 -0.00662572 0.080706
-0.00606315 -0.00606496 0.152361
-0.00606423 0.00608012 -0.152365
-0.00662512 0.00665109 -0.0807014
-0.00682555 0.00685494 -0.0321474
-0.00688158 0.00693687 -0.00690783
-0.00684204 0.00695798 0.00692322
-0.00676239 0.00689146 0.032144
-0.00655838 0.00668664 0.0807036
-0.00601157 0.00611107 0.152358
-0.0059684 0.0292418 -0.151791
-0.00650229 0.0311967 -0.0802448
-0.00669146 0.0319371 -0.0318991
-0.00666651 0.0321909 -0.00681686
-0.00628331 0.0322863 0.00687242
-0.00613367 0.0320617 0.0319111
-0.00594816 0.0313195 0.080238
-0.00550522 0.0293461 0.15177
-0.00539875 0.0751276 -0.149622
-0.00582818 0.0789029 -0.0788097
-0.00595637 0.0803336 -0.0311358
-0.00565495 0.0807904 -0.00648467
-0.00089539 0.0807938 0.00678035
-0.00057333 0.0803402 0.0311601
-0.000522041 0.0789062 0.0787476
-0.000433446 0.075134 0.149551
-0.000397111 0.142072 -0.142
-0.000471785 0.149636 -0.0749872
-0.000487034 0.151785 -0.0291807
-0.000424726 0.152342 -0.00604236
-0.000137837 0.152282 0.00608131
-6.2933e-05 0.1517 0.0291914
-5.2655e-05 0.149552 0.074983
-4.58032e-05 0.142001 0.141985
0.00540174 -0.142075 -0.142075
0.00586301 -0.149638 -0.0750604
0.00602009 -0.151795 -0.0292268
0.00607244 -0.152365 -0.00607323
0.00607266 -0.152365 0.00607252
0.00602059 -0.151794 0.0292263
0.0058632 -0.149638 0.0750618
0.00540168 -0.142074 0.142074
0.00586343 -0.0750597 -0.149638
0.00638657 -0.0788254 -0.0788261
0.00657659 -0.0802486 -0.0311751
0.00664358 -0.0807011 -0.0066374
0.00664406 -0.0807003 0.00664209
0.00657732 -0.080246 0.0311762
0.00638749 -0.0788234 0.0788244
0.00586372 -0.0750584 0.149639
0.00602114 -0.0292241 -0.151795
0.0065776 -0.0311715 -0.0802492
0.00678627 -0.0319055 -0.0319096
0.00684849 -0.0321417 -0.00684507
0.00685253 -0.0321351 0.00684566
0.00679043 -0.0318933 0.0319102
0.00658338 -0.0311583 0.0802538
0.00602631 -0.0292129 0.151791
0.00608022 -0.00606421 -0.152365
0.00665152 -0.00662541 -0.0807013
0.00685579 -0.00682838 -0.0321476
0.00693869 -0.00688756 -0.0069093
0.00695691 -0.00685821 0.0069224
0.00689865 -0.00678266 0.0321444
0.00668516 -0.00657821 0.0807035
0.00611121 -0.0060261 0.152358
0.00610572 0.00610567 -0.152363
0.00668004 0.00667844 -0.0806978
0.00689742 0.00689834 -0.0321408
0.00698797 0.00698694 -0.00689615
0.00710028 0.00711194 0.00693185
0.0070572 0.00706917 0.032145
0.00684216 0.00684716 0.0806975
0.00623894 0.00624878 0.152349
0.00617104 0.0293146 -0.151781
0.00676335 0.0312824 -0.0802317
0.00700546 0.0320319 -0.0318606
0.00722255 0.0323323 -0.00675056
0.00792589 0.0327627 0.00693455
0.00802417 0.0325676 0.0319237
0.00778615 0.0318001 0.080207
0.00700662 0.0297824 0.151713
0.00702924 0.075363 -0.14957
0.0077894 0.0791695 -0.0787529
0.00813156 0.0806195 -0.0309735
0.00860737 0.0810831 -0.00594642
0.0285538 0.0811414 0.00726796
0.0288491 0.080688 0.0311537
0.0282908 0.07924 0.0784826
0.0267638 0.0754237 0.149185
0.0251563 0.142078 -0.141679
0.0265117 0.149626 -0.0747203
0.0270403 0.151781 -0.0290215
0.0273311 0.152295 -0.00595051
0.0280934 0.151968 0.00609496
0.0280631 0.151348 0.029071
0.02753 0.149212 0.074704
0.0260327 0.141706 0.141621
0.0268333 -0.141625 -0.141625
0.0284381 -0.149114 -0.0746972
0.0290359 -0.151235 -0.0290376
0.0292265 -0.151794 -0.00602251
0.0292267 -0.151794 0.00602051
0.0290351 -0.151235 0.0290347
0.0284383 -0.149113 0.0747012
0.0268334 -0.141624 0.141621
0.0284387 -0.0746946 -0.149114
0.0302735 -0.0784035 -0.0784063
0.0309558 -0.0798047 -0.0309556
0.0311767 -0.0802417 -0.00657349
0.0311783 -0.0802361 0.00657713
0.0309603 -0.07979 0.0309552
0.0302767 -0.0783909 0.0784054
0.028442 -0.0746848 0.149112
0.0290382 -0.0290243 -0.151235
0.0309605 -0.0309389 -0.0798081
0.0316774 -0.0316487 -0.0316693
0.0319205 -0.0318697 -0.00677679
0.0319359 -0.0318242 0.00678641
0.0316992 -0.0315792 0.0316728
0.0309836 -0.0308623 0.0798078
0.0290585 -0.0289641 0.15123
0.0292422 -0.00596868 -0.151791
0.031197 -0.00650313 -0.0802437
0.0319401 -0.00669782 -0.0319006
0.0321962 -0.00672592 -0.00683081
0.0322728 -0.00655561 0.00686014
0.032049 -0.00645238 0.0319126
0.0313077 -0.00626245 0.0802437
0.0293391 -0.00576151 0.151777
0.029315 0.0061701 -0.15178
0.0312844 0.00676 -0.0802314
0.0320367 0.00698928 -0.0318744
0.0323176 0.00711639 -0.00680287
0.0326313 0.00765649 0.00688308
0.0324314 0.00765133 0.0319164
0.0316724 0.00741382 0.0802262
0.0296726 0.00675253 0.151756
0.0293864 0.0293842 -0.151195
0.0313715 0.0313592 -0.0797351
0.0321465 0.032112 -0.0315282
0.0323757 0.0324019 -0.00661826
0.0312152 0.0337795 0.00693637
0.0310674 0.0336059 0.0317291
0.0303353 0.0328153 0.0797269
0.0282373 0.0307352 0.151048
0.029315 0.0756721 -0.148932
0.0314598 0.0794845 -0.0781336
0.0324816 0.0809466 -0.0300782
0.0298773 0.0814354 -0.00427197
0.0788219 0.0813828 0.00776916
0.0775836 0.0809603 0.0312104
0.0762745 0.079494 0.077425
0.0730836 0.0756402 0.147381
0.0690456 0.141612 -0.140106
0.0718873 0.149073 -0.0736286
0.0730057 0.15118 -0.0283746
0.0734612 0.151651 -0.00569037
0.0746836 0.150433 0.00606797
0.0745253 0.149757 0.0285897
0.0733762 0.147696 0.0736078
0.0702825 0.140382 0.139929
0.0703941 -0.139887 -0.139887
0.0735382 -0.147104 -0.0735387
0.0747005 -0.149113 -0.0284426
0.0750621 -0.149637 -0.00585548
0.0750624 -0.149635 0.00586352
0.0747019 -0.14911 0.0284382
0.0735386 -0.1471 0.0735378
0.0703948 -0.139884 0.13989
0.0735389 -0.0735301 -0.147104
0.0770843 -0.0770696 -0.0770801
0.0784083 -0.0783908 -0.0302738
0.0788283 -0.0787943 -0.00637869
0.0788342 -0.0787489 0.00638841
0.0784167 -0.0783154 0.0302731
0.0770938 -0.0769946 0.0770817
0.0735462 -0.0734671 0.1471
0.0747097 -0.0283569 -0.149111
0.0784169 -0.0301664 -0.078402
0.0798245 -0.0308264 -0.0309468
0.0802807 -0.0309574 -0.00654892
0.080334 -0.0305658 0.00659695
0.0799008 -0.030269 0.0309567
0.0784916 -0.0296059 0.078394
0.0747714 -0.0278893 0.149094
0.0751279 -0.00539798 -0.149621
0.0789045 -0.00582541 -0.0788042
0.080339 -0.00596225 -0.0311307
0.0808391 -0.00584261 -0.00654791
0.0810983 -0.00459983 0.0067245
0.0806855 -0.00433926 0.0311806
0.0792364 -0.0042069 0.07878
0.0754194 -0.00400478 0.149559
0.0753638 0.0070299 -0.149565
0.0791765 0.00779115 -0.0787434
0.0806357 0.00807976 -0.0310376
0.0811618 0.00815467 -0.00644802
0.0823526 0.00988903 0.00681254
0.0819612 0.00998636 0.0311983
0.080461 0.00971205 0.0787215
0.07655 0.00870921 0.149412
0.0756781 0.0293146 -0.14891
0.0795218 0.0314271 -0.0780324
0.0810418 0.0322348 -0.0304831
0.0815084 0.0322191 -0.0064052
0.0759189 0.0366467 0.00682931
0.0755703 0.0365999 0.0311461
0.074183 0.035795 0.0782594
0.0705804 0.0334787 0.14882
0.07349 0.0734636 -0.146513
0.0773882 0.0771587 -0.0753222
0.0799108 0.0786246 -0.0263596
0.0695477 0.0795414 0.00294886
0.150494 0.0768309 0.0020616
0.146793 0.078059 0.0316933
0.144716 0.0765823 0.0755143
0.138687 0.072707 0.140868
0.131256 0.140663 -0.134453
0.136666 0.14802 -0.0704899
0.138488 0.149832 -0.0265419
0.139066 0.150378 -0.00528244
0.1413 0.146502 0.0059227
0.141702 0.145363 0.0275666
0.139909 0.14351 0.0707559
0.133756 0.136821 0.133836
0.133725 -0.133725 -0.133725
0.13989 -0.139886 -0.0703937
0.141622 -0.141623 -0.0268335