# vtk DataFile Version 3.0
Molecular Dynamics Particle Data
ASCII
DATASET POLYDATA
POINTS 200 float
0.0070232 0.00586913 1.00079
-0.110981 -0.101504 0.989401
0.0170996 0.198608 0.98
0.147988 -0.193061 0.970067
-0.276095 0.0491966 0.960051
0.263019 0.167908 0.950077
-0.0889665 -0.329067 0.940057
-0.169157 0.325999 0.930053
0.368095 -0.133845 0.920057
-0.382951 -0.15818 0.910064
0.184861 0.395087 0.900066
0.136131 -0.434987 0.89006
-0.411076 0.237949 0.880055
0.48203 0.106054 0.870054
-0.29303 -0.417047 0.860046
-0.0679783 0.522057 0.850046
0.415 -0.350071 0.840051
-0.557054 -0.0229263 0.830047
0.4061 0.403966 0.82005
-0.0271086 -0.586037 0.810052
-0.383942 0.461099 0.800054
0.608021 -0.0821209 0.790055
-0.514095 -0.356927 0.780055
0.140121 0.622 0.770055
0.322918 -0.564089 0.760054
-0.63 0.201117 0.750054
0.611078 0.281922 0.740054
-0.264105 -0.63 0.730052
-0.234925 0.653072 0.720052
0.623 -0.328092 0.710046
-0.691062 -0.181935 0.700051
0.391086 0.609 0.690046
0.123949 -0.723057 0.680044
-0.587 0.455072 0.670043
0.749055 0.0619566 0.660041
-0.516066 -0.558 0.650041
0.00403097 0.768055 0.640032
0.522005 -0.575059 0.630038
-0.781053 0.0720284 0.620032
0.631054 0.479021 0.610032
-0.143024 -0.787052 0.600033
-0.430026 0.683053 0.59003
0.786051 -0.215022 0.580034
-0.731051 -0.375031 0.570029
0.288015 0.777056 0.56003
0.315032 -0.774051 0.550029
-0.761054 0.360016 0.540032
0.810052 0.250032 0.530028
-0.432013 -0.737061 0.520028
-0.181028 0.841053 0.51003
0.706064 -0.502009 0.500028
-0.865056 -0.108029 0.490029
0.569017 0.668063 0.480028
0.0320301 -0.882057 0.470027
-0.623063 0.632022 0.460025
0.892062 -0.0459692 0.450026
-0.692027 -0.572058 0.440027
0.124976 0.894063 0.430026
0.515055 -0.747031 0.420027
-0.889069 0.204978 0.410024
0.797036 0.452054 0.400026
-0.283992 -0.876066 0.390026
-0.384056 0.842041 0.380025
0.855068 -0.362998 0.370025
-0.879047 -0.311051 0.360022
0.44 0.827069 0.350023
0.235046 -0.911052 0.340025
-0.792065 0.514 0.330025
0.935055 0.156038 0.320024
-0.586012 -0.749066 0.310022
-0.0740334 0.951057 0.300021
0.699065 -0.653022 0.290015
-0.96006 0.00897749 0.28002
0.716028 0.643061 0.270015
-0.0939794 -0.961065 0.260015
-0.582054 0.774034 0.250016
0.954065 -0.177993 0.240018
-0.826041 -0.514052 0.230016
0.262 0.940065 0.220018
0.442046 -0.872047 0.210017
-0.917067 0.345 0.200013
0.911052 0.366039 0.190014
-0.426011 -0.887066 0.180014
-0.286031 0.943056 0.170014
0.849062 -0.503019 0.160012
-0.968059 -0.203027 0.150012
0.577026 0.804057 0.140008
0.118017 -0.984061 0.130008
-0.753055 0.64703 0.120009
0.993063 0.0310158 0.110009
-0.712041 -0.69505 0.100007
0.0559899 0.994065 0.0900049
0.631051 -0.772043 0.0800064
-0.987065 0.143 0.0700049
0.82505 0.562043 0.0600043
-0.229009 -0.972064 0.0500047
-0.488039 0.872052 0.0400039
0.949062 -0.313015 0.0300018
-0.912056 -0.410031 0.0200018
0.395026 0.919059 0.01
0.329024 -0.944059 -1.03685e-06
-0.881056 0.474032 -0.0100011
0.969061 0.245016 -0.02
-0.549032 -0.835054 -0.0300026
-0.160004 0.986064 -0.0400023
0.784046 -0.619047 -0.0500026
-0.996066 -0.072996 -0.0600048
0.685051 0.726042 -0.0700042
-0.0150063 -0.997065 -0.0800037
-0.662031 0.744055 -0.0900059
0.990063 -0.10102 -0.100009
-0.798056 -0.59303 -0.110007
0.187025 0.975059 -0.12001
0.520021 -0.844061 -0.13001
-0.952056 0.271031 -0.140008
0.884065 0.443013 -0.15001
-0.352038 -0.922053 -0.160012
-0.363 0.916067 -0.170013
0.885051 -0.430043 -0.180014
-0.941066 -0.28 -0.190015
0.504046 0.840046 -0.200013
0.195992 -0.958067 -0.210015
-0.790039 0.573052 -0.220017
0.967064 0.110986 -0.23002
-0.636059 -0.733029 -0.240017
-0.0259781 0.968062 -0.250017
0.671025 -0.694061 -0.260017
-0.961059 0.0590255 -0.270018
0.746062 0.604018 -0.28002
-0.141038 -0.947056 -0.290022
-0.533006 0.791064 -0.300022
0.924052 -0.222044 -0.310018
-0.829068 -0.459 -0.320023
0.300049 0.895048 -0.330021
0.382 -0.85907 -0.340021
-0.859043 0.374056 -0.350022
0.88207 0.302987 -0.36002
-0.444056 -0.816036 -0.370025
-0.222982 0.898068 -0.380024
0.767031 -0.50906 -0.390023
-0.905065 -0.141976 -0.400024
0.569064 0.713026 -0.410026
0.0619701 -0.905062 -0.420024
-0.654023 0.623061 -0.430028
0.898057 -0.018026 -0.440029
-0.670062 -0.590017 -0.450027
0.0950341 0.883055 -0.460027
0.523014 -0.711058 -0.470031
-0.861053 0.170034 -0.480031
0.745059 0.453014 -0.490031
-0.241038 -0.832052 -0.500028
-0.381011 0.771056 -0.510031
0.79605 -0.309034 -0.52003
-0.790058 -0.308008 -0.530029
0.372034 0.755048 -0.54003
0.234013 -0.802055 -0.550032
-0.709047 0.429038 -0.560029
0.806057 0.161006 -0.57003
-0.481034 -0.657048 -0.58003
-0.0880148 0.803055 -0.590032
0.602048 -0.527034 -0.600029
-0.792056 -0.0170165 -0.610031
0.567027 0.542054 -0.620031
-0.050976 -0.775056 -0.630035
-0.481059 0.599025 -0.640032
0.75106 -0.115971 -0.650034
-0.625014 -0.417069 -0.660041
0.176963 0.721062 -0.67004
0.352078 -0.643012 -0.680041
-0.685068 0.232952 -0.690044
0.654 0.287086 -0.700048
-0.283943 -0.644075 -0.710048
-0.222098 0.657 -0.720049
0.599079 -0.329928 -0.730057
-0.654 -0.15911 -0.740055
0.368927 0.549093 -0.750055
0.098115 -0.643015 -0.760056
-0.497101 0.399931 -0.770055
0.625028 0.0391248 -0.780056
-0.424942 -0.44211 -0.790053
0.0148865 0.600042 -0.800054
0.385114 -0.441961 -0.81005
-0.569055 0.0639096 -0.820051
0.450998 0.328093 -0.830049
-0.107951 -0.532058 -0.840049
-0.27205 0.45103 -0.850048
0.489048 -0.144025 -0.860048
-0.443063 -0.216978 -0.870052
0.174094 0.442 -0.880055
0.163884 -0.42607 -0.890064
-0.389945 0.194154 -0.900065
0.399067 0.11383 -0.910066
-0.205168 -0.333933 -0.92006
-0.0698789 0.36108 -0.930054
0.27401 -0.203062 -0.940057
-0.310936 -0.0330761 -0.950081
0.185928 0.210176 -0.960055
0.00404386 -0.242905 -0.970081
-0.136944 0.143876 -0.980082
0.140875 -0.010086 -0.990084
VERTICES 200 400
1 0
1 1
1 2
1 3
1 4
1 5
1 6
1 7
1 8
1 9
1 10
1 11
1 12
1 13
1 14
1 15
1 16
1 17
1 18
1 19
1 20
1 21
1 22
1 23
1 24
1 25
1 26
1 27
1 28
1 29
1 30
1 31
1 32
1 33
1 34
1 35
1 36
1 37
1 38
1 39
1 40
1 41
1 42
1 43
1 44
1 45
1 46
1 47
1 48
1 49
1 50
1 51
1 52
1 53
1 54
1 55
1 56
1 57
1 58
1 59
1 60
1 61
1 62
1 63
1 64
1 65
1 66
1 67
1 68
1 69
1 70
1 71
1 72
1 73
1 74
1 75
1 76
1 77
1 78
1 79
1 80
1 81
1 82
1 83
1 84
1 85
1 86
1 87
1 88
1 89
1 90
1 91
1 92
1 93
1 94
1 95
1 96
1 97
1 98
1 99
1 100
1 101
1 102
1 103
1 104
1 105
1 106
1 107
1 108
1 109
1 110
1 111
1 112
1 113
1 114
1 115
1 116
1 117
1 118
1 119
1 120
1 121
1 122
1 123
1 124
1 125
1 126
1 127
1 128
1 129
1 130
1 131
1 132
1 133
1 134
1 135
1 136
1 137
1 138
1 139
1 140
1 141
1 142
1 143
1 144
1 145
1 146
1 147
1 148
1 149
1 150
1 151
1 152
1 153
1 154
1 155
1 156
1 157
1 158
1 159
1 160
1 161
1 162
1 163
1 164
1 165
1 166
1 167
1 168
1 169
1 170
1 171
1 172
1 173
1 174
1 175
1 176
1 177
1 178
1 179
1 180
1 181
1 182
1 183
1 184
1 185
1 186
1 187
1 188
1 189
1 190
1 191
1 192
1 193
1 194
1 195
1 196
1 197
1 198
1 199
POINT_DATA 200
VECTORS velocity float
0.0150917 0.0123328 0.00175738
-0.0149816 -0.0139903 -0.00125647
0.00024308 0.00159739 1.27507e-05
-3.62466e-05 -0.000151356 0.000167702
-0.000235193 0.000495982 0.000128487
5.05416e-05 -0.000230176 0.000192271
8.74237e-05 -0.000181677 0.000142312
-0.000392113 -1.56591e-05 0.000133065
0.000236742 0.000386062 0.000147322
0.000118819 -0.000450247 0.00016078
-0.000347669 0.000216664 0.000165062
0.000327664 3.08574e-05 0.000154625
-0.000190253 -0.000127263 0.000138968
7.74931e-05 0.000134467 0.000136039
-7.79519e-05 -0.000117206 0.000115404
5.43733e-05 0.00014863 0.00011539
5.5786e-06 -0.000176548 0.000128065
-0.0001362 0.000183896 0.000118273
0.000249816 -8.56662e-05 0.000126149
-0.000271063 -9.74056e-05 0.000130126
0.000145826 0.000247249 0.000136056
5.29677e-05 -0.000301845 0.00013911
-0.000236242 0.000183594 0.000140234
0.000302712 2.31258e-05 0.00014119
-0.000204466 -0.000222852 0.000137943
-6.21085e-06 0.000293336 0.000136215
0.000195636 -0.000196591 0.000138102
-0.000262369 -4.19474e-07 0.00012932
0.000187371 0.00017992 0.000130075
9.77827e-06 -0.000229856 0.000115754
-0.000157645 0.000161851 0.000126782
0.000214582 3.30252e-06 0.000115803
-0.000126614 -0.000148075 0.000110698
-2.08622e-05 0.000179699 0.000108361
0.000140999 -0.000108584 0.000104485
-0.000166822 -2.24144e-05 0.000105262
7.74805e-05 0.000139983 8.9775e-05
3.32175e-05 -0.000152694 9.87595e-05
-0.00013509 7.1107e-05 8.91995e-05
0.000135893 5.39362e-05 8.96829e-05
-6.03038e-05 -0.000132294 9.0608e-05
-6.44333e-05 0.000134486 8.01682e-05
0.000129206 -5.57043e-05 9.3377e-05
-0.000127632 -7.86686e-05 7.76206e-05
3.97636e-05 0.000145351 7.9394e-05
7.98822e-05 -0.000128536 7.76398e-05
-0.000135714 4.37013e-05 8.83481e-05
0.00013202 8.05984e-05 7.07698e-05
-3.3676e-05 -0.000155296 7.19201e-05
-7.12997e-05 0.000133353 7.96722e-05
0.000161224 -3.68659e-05 7.26882e-05
-0.00014281 -7.20382e-05 7.49258e-05
4.55888e-05 0.000159432 7.33506e-05
7.5196e-05 -0.000148563 6.74687e-05
-0.00015995 5.45938e-05 6.23658e-05
0.000157227 7.70503e-05 6.45428e-05
-6.95363e-05 -0.00014968 6.89326e-05
-5.9931e-05 0.000160539 6.60807e-05
0.000139242 -8.45749e-05 6.91742e-05
-0.000171771 -5.61915e-05 6.03023e-05
9.64088e-05 0.000136044 6.70052e-05
2.22614e-05 -0.000165471 6.54049e-05
-0.000140934 0.000104635 6.28468e-05
0.00017127 1.61264e-05 6.15957e-05
-0.000116578 -0.000129501 5.45711e-05
-5.10538e-07 0.000173086 5.81112e-05
0.000115186 -0.000129913 6.17751e-05
-0.000163218 2.99053e-05 6.18496e-05
0.000140455 9.64372e-05 6.00446e-05
-3.95524e-05 -0.000166455 5.56895e-05
-8.34599e-05 0.000148617 5.25063e-05
0.000163089 -5.57047e-05 4.09492e-05
-0.000154768 -5.62767e-05 5.14901e-05
7.15794e-05 0.000156079 4.11824e-05
5.14285e-05 -0.000164269 4.25204e-05
-0.000138727 9.20006e-05 4.50147e-05
0.000163311 1.73833e-05 4.45184e-05
-0.000103618 -0.000130829 3.94604e-05
3.29984e-06 0.000164472 4.44233e-05
0.000115569 -0.000117458 4.32355e-05
-0.000167427 1.03219e-05 3.2724e-05
0.000132026 9.81757e-05 3.60212e-05
-2.79228e-05 -0.000165517 3.4536e-05
-7.98313e-05 0.000143078 3.50212e-05
0.000157373 -4.9206e-05 2.98959e-05
-0.000152244 -6.83307e-05 2.99911e-05
6.44779e-05 0.000148951 2.25446e-05
4.2918e-05 -0.000155663 2.02263e-05
-0.00014197 8.17101e-05 2.31144e-05
0.000159912 3.94985e-05 2.13327e-05
-0.0001036 -0.000126214 1.86325e-05
-2.51873e-05 0.000163333 1.26554e-05
0.000127013 -0.000108148 1.61647e-05
-0.000163452 -3.38599e-06 1.26343e-05
0.000124212 0.000107884 1.0741e-05
-2.38147e-05 -0.000160965 1.18469e-05
-9.81368e-05 0.000132636 9.99841e-06
0.000157768 -3.86784e-05 4.74795e-06
-0.000144316 -7.85175e-05 4.69866e-06
6.41962e-05 0.000151464 1.10229e-07
5.88318e-05 -0.000151855 -2.58408e-06
-0.000144532 8.0583e-05 -2.70014e-06
0.000156734 3.99672e-05 -8.68721e-07
-8.92602e-05 -0.000136093 -6.53744e-06
-1.07308e-05 0.00016217 -6.11084e-06
0.000115338 -0.000118027 -6.55872e-06
-0.000165598 1.11782e-05 -1.20138e-05
0.000129403 0.000107111 -1.15177e-05
-1.584e-05 -0.000164235 -9.83052e-06
-8.62017e-05 0.000139406 -1.47776e-05
0.000159797 -5.06685e-05 -2.14932e-05
-0.000144274 -7.85998e-05 -1.91059e-05
6.25866e-05 0.000152561 -2.53418e-05
5.32974e-05 -0.000156628 -2.54588e-05
-0.00014449 7.96043e-05 -2.29268e-05
0.000164876 3.40097e-05 -2.58978e-05
-9.49516e-05 -0.000134094 -3.07397e-05
-1.39596e-05 0.000167731 -3.14555e-05
0.000127273 -0.000108273 -3.64318e-05
-0.000165509 -6.33605e-07 -3.85562e-05
0.000115721 0.000114191 -3.37872e-05
-2.03666e-05 -0.000167303 -3.85845e-05
-0.000100105 0.000131779 -4.28861e-05
0.000162732 -3.44709e-05 -4.92515e-05
-0.000152052 -7.48021e-05 -4.37272e-05
5.47644e-05 0.0001586 -4.58847e-05
6.36583e-05 -0.000155405 -4.60685e-05
-0.000152294 6.37543e-05 -4.78667e-05
0.000158407 4.83909e-05 -5.12151e-05
-9.51562e-05 -0.000143956 -5.52725e-05
-3.41638e-05 0.000161936 -5.60383e-05
0.000131961 -0.000111604 -4.72865e-05
-0.000170402 -1.10088e-05 -5.74486e-05
0.000123777 0.000121037 -5.34413e-05
-1.23022e-05 -0.000174239 -5.26291e-05
-0.000107584 0.000141369 -5.45966e-05
0.000174802 -3.19706e-05 -5.06103e-05
-0.000141168 -9.65344e-05 -6.30089e-05
4.40687e-05 0.000170775 -5.94841e-05
8.33387e-05 -0.000154147 -5.7171e-05
-0.000163256 6.09522e-05 -5.88421e-05
0.000161386 6.62915e-05 -6.59452e-05
-7.46429e-05 -0.000157928 -5.89277e-05
-5.77085e-05 0.000155478 -7.1337e-05
0.000146417 -6.50456e-05 -7.54008e-05
-0.000157515 -4.63162e-05 -6.92322e-05
8.52986e-05 0.000142066 -6.96578e-05
4.16881e-05 -0.000149643 -7.95738e-05
-0.000134933 8.41429e-05 -7.8471e-05
0.000151723 3.67412e-05 -7.92808e-05
-9.50268e-05 -0.000129537 -7.17778e-05
-2.81494e-05 0.000145083 -8.28031e-05
0.000124645 -8.57174e-05 -7.84432e-05
-0.000151169 -2.18773e-05 -7.70913e-05
8.55445e-05 0.000119541 -8.18186e-05
3.1498e-05 -0.000141714 -8.82506e-05
-0.00011706 9.51532e-05 -7.646e-05
0.000148761 1.63967e-05 -7.85062e-05
-8.58876e-05 -0.000120114 -7.91048e-05
-3.71579e-05 0.00013996 -8.91525e-05
0.000121205 -9.1776e-05 -7.69683e-05
-0.000142982 -4.14375e-05 -8.45606e-05
6.97689e-05 0.000138062 -8.33488e-05
6.00324e-05 -0.000142715 -9.4589e-05
-0.000147757 6.14233e-05 -9.00927e-05
0.000153478 7.27494e-05 -9.26478e-05
-4.24991e-05 -0.000172231 -0.000104237
-9.38122e-05 0.000158037 -0.000102485
0.000195454 -3.97413e-05 -0.00010393
-0.000170762 -0.000121003 -0.000111234
2.98264e-05 0.000216229 -0.000120256
0.000142955 -0.000189005 -0.00011906
-0.000245958 2.89514e-05 -0.000123114
0.000198905 0.000178863 -0.00014647
-2.82043e-05 -0.00027574 -0.000140731
-0.000183288 0.000232069 -0.000141356
0.000287416 -4.30756e-05 -0.000144895
-0.000252375 -0.000171825 -0.000142079
7.24038e-05 0.000311772 -0.000142778
0.000144301 -0.000275921 -0.000135445
-0.00028339 0.000105496 -0.000137106
0.000285429 9.70016e-05 -0.000125216
-0.000138717 -0.000225689 -0.000129576
-1.61787e-05 0.000230874 -0.000122885
0.00012172 -0.000150966 -0.000123928
-0.000126221 7.60821e-05 -0.000120953
0.000118914 -6.16095e-05 -0.000118907
-0.000156759 5.58612e-05 -0.000130802
0.000235292 1.27872e-05 -0.000140255
-0.000289382 -0.000174089 -0.000161918
0.000138999 0.000383661 -0.000163245
0.000168715 -0.000424604 -0.00016683
-0.000417958 0.000168165 -0.000154299
0.000302071 0.000200028 -0.00013866
2.56734e-05 -0.000154897 -0.000148954
0.000159439 -0.000189818 -0.000205641
-0.000179745 0.000438858 -0.000142428
0.000109041 0.000237325 -0.000206974
0.000140677 -0.000308702 -0.000207986
-0.000312473 -0.000214046 -0.000213603
VECTORS force float
0.00945371 0.00640426 0.00134218
-0.00928669 -0.00880832 -0.000644973
0.0002711 0.00236403 -3.35935e-05
-6.75172e-05 -0.00018094 0.000210795
-0.000277702 0.00063932 0.000161869
7.01539e-05 -0.000281597 0.000238197
0.000127641 -0.000296786 0.000161431
-0.000491917 -1.75889e-05 0.000165309
0.000294238 0.000479182 0.000183851
0.000133845 -0.000559771 0.000196406
-0.000429433 0.00027041 0.000205215
0.00040726 3.68541e-05 0.000192516
-0.000238581 -0.000156047 0.00017259
9.80029e-05 0.000167186 0.000169514
-9.8117e-05 -0.000147101 0.000143861
6.76497e-05 0.000184682 0.0001447
6.36059e-06 -0.000218668 0.000160877
-0.000168042 0.000228191 0.000148869
0.00030939 -0.000107104 0.000158667
-0.000336721 -0.000120415 0.000163294
0.000181493 0.000307461 0.000170301
6.61182e-05 -0.000375639 0.000173858
-0.000294775 0.000228388 0.000174956
0.000377238 2.97799e-05 0.000175766
-0.000254297 -0.000278514 0.000171775
-8.89221e-06 0.000365833 0.000169401
0.000244885 -0.000244458 0.000171727
-0.000327439 -1.59599e-06 0.000160803
0.000233078 0.000225226 0.000161785
1.28694e-05 -0.000286995 0.000144123
-0.000197291 0.0002015 0.000157854
0.000267887 4.60371e-06 0.00014433
-0.000157936 -0.000185059 0.000138125
-2.61853e-05 0.000224391 0.000135274
0.000176024 -0.000135609 0.000130587
-0.000208244 -2.80393e-05 0.000131495
9.71438e-05 0.000174446 0.000112577
4.13083e-05 -0.000190591 0.000123562
-0.000168311 8.91246e-05 0.000111869
0.000169644 6.68398e-05 0.000112486
-7.55407e-05 -0.000164864 0.000113592
-7.99286e-05 0.00016785 0.000100649
0.000161121 -6.96866e-05 0.000116944
-0.000159316 -9.76463e-05 9.74985e-05
4.9891e-05 0.000181133 9.96298e-05
9.93164e-05 -0.000160455 9.74307e-05
-0.000169242 5.4696e-05 0.00011069
0.000164799 0.000100281 8.88037e-05
-4.23087e-05 -0.000193566 9.02666e-05
-8.89303e-05 0.000166542 9.97104e-05
0.000201007 -4.63104e-05 9.11327e-05
-0.00017835 -8.98326e-05 9.37808e-05
5.70771e-05 0.000199001 9.17946e-05
9.36875e-05 -0.000185532 8.44579e-05
-0.000199667 6.83207e-05 7.80641e-05
0.000196334 9.59197e-05 8.08274e-05
-8.69455e-05 -0.000186952 8.61413e-05
-7.46672e-05 0.000200555 8.26128e-05
0.000173948 -0.000105719 8.63951e-05
-0.00021453 -6.98942e-05 7.54573e-05
0.000120537 0.000169945 8.36481e-05
2.77287e-05 -0.000206779 8.16437e-05
-0.000175935 0.000130849 7.85122e-05
0.000214025 2.00445e-05 7.68855e-05
-0.000145741 -0.000161673 6.81706e-05
-4.65307e-07 0.000216233 7.25404e-05
0.000143823 -0.000162426 7.70741e-05
-0.000203928 3.74774e-05 7.71408e-05
0.000175578 0.00012047 7.48961e-05
-4.95389e-05 -0.000207949 6.94962e-05
-0.000104202 0.000185748 6.55155e-05
0.000203716 -6.96808e-05 5.12188e-05
-0.000193445 -7.03496e-05 6.42016e-05
8.952e-05 0.000194954 5.14529e-05
6.41543e-05 -0.000205267 5.3124e-05
-0.000173336 0.000114993 5.6176e-05
0.000204091 2.17309e-05 5.55513e-05
-0.000129517 -0.000163462 4.92512e-05
4.08074e-06 0.000205564 5.5376e-05
0.000144425 -0.000146794 5.39195e-05
-0.000209203 1.29645e-05 4.08282e-05
0.00016498 0.000122691 4.49644e-05
-3.49091e-05 -0.000206834 4.31211e-05
-9.97925e-05 0.000178782 4.36774e-05
0.000196682 -6.14494e-05 3.72761e-05
-0.000190248 -8.53528e-05 3.73977e-05
8.05289e-05 0.000186143 2.81656e-05
5.37213e-05 -0.000194491 2.52744e-05
-0.000177395 0.000102103 2.88685e-05
0.000199814 4.92828e-05 2.66145e-05
-0.000129405 -0.000157768 2.32608e-05
-3.13558e-05 0.000204081 1.58285e-05
0.000158621 -0.000135218 2.01582e-05
-0.000204248 -4.21226e-06 1.57561e-05
0.00015525 0.000134753 1.33973e-05
-2.97835e-05 -0.000201122 1.47537e-05
-0.000122521 0.000165802 1.24433e-05
0.000197108 -4.83941e-05 5.94475e-06
-0.000180347 -9.80562e-05 5.84058e-06
8.01934e-05 0.000189268 1.76147e-07
7.34742e-05 -0.00018975 -3.20663e-06
-0.000180601 0.000100695 -3.35058e-06
0.000195851 4.98975e-05 -1.12529e-06
-0.00011161 -0.000169988 -8.16207e-06
-1.34334e-05 0.000202648 -7.61497e-06
0.00014418 -0.000147412 -8.21077e-06
-0.000206927 1.38945e-05 -1.49732e-05
0.000161678 0.000133867 -1.44223e-05
-1.98496e-05 -0.000205218 -1.23454e-05
-0.000107769 0.000174128 -1.84795e-05
0.000199692 -6.32025e-05 -2.68017e-05
-0.000180287 -9.8194e-05 -2.3897e-05
7.81754e-05 0.00019064 -3.15959e-05
6.66407e-05 -0.0001957 -3.17519e-05
-0.000180554 9.94155e-05 -2.86417e-05
0.000205983 4.25781e-05 -3.23436e-05
-0.000118591 -0.000167592 -3.83702e-05
-1.75757e-05 0.000209545 -3.92188e-05
0.000159039 -0.000135347 -4.54207e-05
-0.000206834 -8.11073e-07 -4.80632e-05
0.00014464 0.000142679 -4.21751e-05
-2.53959e-05 -0.000209062 -4.81552e-05
-0.000125095 0.000164719 -5.34608e-05
0.0002034 -4.31058e-05 -6.1365e-05
-0.000189951 -9.35519e-05 -5.45247e-05
6.84116e-05 0.000198208 -5.72551e-05
7.95723e-05 -0.000194202 -5.74989e-05
-0.00019033 7.97106e-05 -5.97126e-05
0.000197985 6.04768e-05 -6.38673e-05
-0.000118838 -0.000179949 -6.89004e-05
-4.27591e-05 0.000202342 -6.98965e-05
0.000164931 -0.000139291 -5.91008e-05
-0.000212878 -1.39171e-05 -7.16908e-05
0.00015456 0.000151313 -6.67344e-05
-1.52302e-05 -0.000217674 -6.57493e-05
-0.000134535 0.000176446 -6.82101e-05
0.000218306 -3.96784e-05 -6.33043e-05
-0.000176309 -0.000120717 -7.86553e-05
5.48517e-05 0.000213332 -7.43823e-05
0.000104248 -0.00019243 -7.14441e-05
-0.000203947 7.59201e-05 -7.35798e-05
0.000201462 8.29903e-05 -8.24259e-05
-9.29883e-05 -0.000197266 -7.37291e-05
-7.22028e-05 0.000194216 -8.91193e-05
0.000182978 -8.12359e-05 -9.41691e-05
-0.00019673 -5.79436e-05 -8.65532e-05
0.000106367 0.000177472 -8.71392e-05
5.21266e-05 -0.000186962 -9.93981e-05
-0.000168578 0.000105016 -9.81159e-05
0.000189532 4.58975e-05 -9.91045e-05
-0.00011844 -0.00016178 -8.99335e-05
-3.51718e-05 0.000181178 -0.000103574
0.000155664 -0.000106884 -9.82257e-05
-0.000188578 -2.74597e-05 -9.66172e-05
0.000106572 0.000149259 -0.00010251
3.94634e-05 -0.000176793 -0.000110509
-0.000146156 0.000118339 -9.59921e-05
0.000185336 2.09182e-05 -9.86178e-05
-0.000106739 -0.000149974 -9.93175e-05
-4.67426e-05 0.000174412 -0.000111838
0.000151403 -0.00011385 -9.67967e-05
-0.000178121 -5.22331e-05 -0.000106182
8.64764e-05 0.000172473 -0.000104666
7.52496e-05 -0.000177962 -0.000118489
-0.000184609 7.61678e-05 -0.000112998
0.00019142 9.11432e-05 -0.000116059
-5.29715e-05 -0.000215091 -0.00013033
-0.000117198 0.000197336 -0.000128078
0.000244044 -4.9732e-05 -0.00012979
-0.000213436 -0.000150765 -0.000138693
3.79918e-05 0.000269814 -0.000149641
0.000177859 -0.000236404 -0.000148196
-0.000306852 3.7139e-05 -0.000153042
0.000248945 0.000222203 -0.000182064
-3.64387e-05 -0.000343816 -0.00017488
-0.000227642 0.000290125 -0.000175786
0.000358294 -5.47003e-05 -0.000180367
-0.000315029 -0.000213426 -0.000176962
9.07435e-05 0.000388155 -0.000178104
0.000179422 -0.000343504 -0.000169273
-0.000352348 0.000131032 -0.000171637
0.000354034 0.000120979 -0.000157241
-0.000171138 -0.000280277 -0.00016293
-2.09963e-05 0.000285813 -0.000154718
0.00015122 -0.000186503 -0.000155813
-0.000156839 9.42313e-05 -0.000151742
0.000148724 -7.64157e-05 -0.000148601
-0.000196015 6.86046e-05 -0.000163125
0.000292756 1.87587e-05 -0.000174209
-0.000358974 -0.000217073 -0.00020179
0.000172437 0.000475723 -0.000203746
0.000208249 -0.000526662 -0.000208431
-0.000518226 0.000208867 -0.000192745
0.000374651 0.000247767 -0.000173527
3.23806e-05 -0.000193249 -0.000186024
0.000198304 -0.000235556 -0.000256536
-0.000222547 0.000541004 -0.000178605
0.000133255 0.000294527 -0.000257907
0.000176577 -0.00038261 -0.000259194
-0.000388517 -0.000262392 -0.000266185
SCALARS mass float 1
LOOKUP_TABLE default
1
1
1
1
1
1
1
1
1
1
1
1
1
1
1
1
1
1
1
1
1
1
1
1
1
1
1
1
1
1
1
1
1
1
1
1
1
1
1
1
1
1
1
1
1
1
1
1
1
1
1
1
1
1
1
1
1
1
1
1
1
1
1
1
1
1
1
1
1
1
1
1
1
1
1
1
1
1
1
1
1
1
1
1
1
1
1
1
1
1
1
1
1
1
1
1
1
1
1
1
1
1
1
1
1
1
1
1
1
1
1
1
1
1
1
1
1
1
1
1
1
1
1
1
1
1
1
1
1
1
1
1
1
1
1
1
1
1
1
1
1
1
1
1
1
1
1
1
1
1
1
1
1
1
1
1
1
1
1
1
1
1
1
1
1
1
1
1
1
1
1
1
1
1
1
1
1
1
1
1
1
1
1
1
1
1
1
1
1
1
1
1
1
1
1
1
1
1
1
1
