# vtk DataFile Version 3.0
Molecular Dynamics Particle Data
ASCII
DATASET POLYDATA
POINTS 200 float
0.00113891 0.000967951 1.00013
-0.105133 -0.0960538 0.989901
0.0170143 0.198082 0.98
0.147999 -0.193009 0.970009
-0.276014 0.0490274 0.960007
0.263002 0.167987 0.950011
-0.0889955 -0.329009 0.940008
-0.169022 0.326 0.930007
0.368013 -0.133978 0.920008
-0.382994 -0.158025 0.910009
0.18498 0.395012 0.900009
0.136018 -0.435 0.890009
-0.41101 0.237993 0.880008
0.482004 0.106008 0.870007
-0.293004 -0.417006 0.860006
-0.067997 0.522008 0.850006
0.415 -0.35001 0.840007
-0.557007 -0.0229896 0.830006
0.406014 0.403995 0.820007
-0.0270153 -0.586003 0.810007
-0.383992 0.461014 0.800007
0.608 -0.082017 0.790008
-0.514012 -0.35699 0.780008
0.140017 0.622 0.770008
0.322989 -0.564012 0.760008
-0.63 0.201016 0.750007
0.611011 0.281989 0.740008
-0.264015 -0.63 0.730007
-0.234989 0.65301 0.720007
0.623 -0.328013 0.710006
-0.691009 -0.181991 0.700007
0.391012 0.609 0.690006
0.123993 -0.723008 0.680005
-0.587 0.45501 0.670005
0.749008 0.0619939 0.660004
-0.516009 -0.558 0.650004
0.00400435 0.768008 0.640002
0.522 -0.575009 0.630004
-0.781007 0.0720039 0.620002
0.631007 0.479002 0.610002
-0.143003 -0.787007 0.600002
-0.430003 0.683007 0.59
0.786007 -0.215003 0.580003
-0.731007 -0.375004 0.57
0.288 0.777008 0.56
0.315004 -0.774007 0.55
-0.761007 0.360001 0.540002
0.810007 0.250005 0.53
-0.432 -0.737009 0.52
-0.181004 0.841007 0.51
0.706009 -0.502 0.5
-0.865008 -0.108004 0.490004
0.569 0.668009 0.480004
0.0320042 -0.882008 0.470004
-0.623009 0.632 0.460003
0.892009 -0.0459957 0.450003
-0.692 -0.572008 0.440004
0.124997 0.894009 0.430004
0.515008 -0.747001 0.420004
-0.88901 0.204997 0.410003
0.797003 0.452007 0.400004
-0.284 -0.876009 0.390004
-0.384008 0.842004 0.380003
0.85501 -0.363 0.370003
-0.879006 -0.311007 0.360002
0.44 0.82701 0.350003
0.235006 -0.911007 0.340003
-0.792009 0.514 0.330003
0.935008 0.156005 0.320003
-0.586 -0.749009 0.310003
-0.0740047 0.951008 0.300002
0.699009 -0.653 0.29
-0.960009 0.00899683 0.280002
0.716 0.643009 0.27
-0.0939972 -0.961009 0.260001
-0.582008 0.774002 0.250001
0.954009 -0.178 0.240002
-0.826004 -0.514007 0.230002
0.262 0.940009 0.220002
0.442006 -0.872006 0.210002
-0.917009 0.345 0.200002
0.911007 0.366005 0.190002
-0.426 -0.887009 0.180002
-0.286005 0.943008 0.170002
0.849009 -0.503 0.160002
-0.968009 -0.203004 0.150002
0.577 0.804008 0.140001
0.118002 -0.984009 0.13
-0.753008 0.647 0.120001
0.993009 0.0310022 0.110001
-0.712004 -0.695007 0.100001
0.0559986 0.994009 0.0900005
0.631007 -0.772005 0.0800009
-0.987009 0.143 0.0700005
0.825006 0.562005 0.0600006
-0.229001 -0.972009 0.0500006
-0.488005 0.872007 0.0400006
0.949009 -0.313 0.0300003
-0.912008 -0.410004 0.0200003
0.395003 0.919009 0.01
0.329003 -0.944009 -1.46574e-07
-0.881008 0.474005 -0.0100002
0.969009 0.245002 -0.02
-0.549002 -0.835007 -0.0300003
-0.16 0.986009 -0.0400002
0.784006 -0.619006 -0.0500003
-0.996009 -0.0729997 -0.0600007
0.685007 0.726005 -0.0700003
-0.0150009 -0.997009 -0.08
-0.662001 0.744008 -0.0900007
0.990009 -0.101003 -0.100001
-0.798008 -0.593 -0.110001
0.187003 0.975009 -0.120001
0.52 -0.844009 -0.130001
-0.952008 0.271004 -0.140001
0.884009 0.443 -0.150001
-0.352005 -0.922007 -0.160002
-0.363 0.916009 -0.170002
0.885007 -0.430006 -0.180002
-0.941009 -0.28 -0.190002
0.504006 0.840005 -0.200002
0.196 -0.958009 -0.210002
-0.790004 0.573007 -0.220002
0.967009 0.110998 -0.230003
-0.636009 -0.733 -0.240002
-0.0259969 0.968009 -0.250001
0.671 -0.694009 -0.260001
-0.961009 0.0590036 -0.270002
0.746009 0.604 -0.280002
-0.141005 -0.947008 -0.290003
-0.533 0.791009 -0.300003
0.924007 -0.222006 -0.310001
-0.82901 -0.459 -0.320003
0.300006 0.895006 -0.330002
0.382 -0.85901 -0.340002
-0.859005 0.374008 -0.350002
0.88201 0.303 -0.360002
-0.444008 -0.816003 -0.370003
-0.222998 0.89801 -0.380003
0.767001 -0.509009 -0.390003
-0.905009 -0.141997 -0.400003
0.569009 0.713 -0.410004
0.0619958 -0.905009 -0.420003
-0.654 0.623009 -0.430004
0.898008 -0.0180037 -0.440004
-0.670009 -0.59 -0.450004
0.0950048 0.883008 -0.460004
0.523 -0.711008 -0.470004
-0.861007 0.170005 -0.480004
0.745009 0.453 -0.490004
-0.241005 -0.832007 -0.5
-0.381 0.771008 -0.510001
0.796007 -0.309005 -0.52
-0.790008 -0.308 -0.53
0.372005 0.755006 -0.54
0.234002 -0.802008 -0.550002
-0.709006 0.429005 -0.56
0.806008 0.161 -0.57
-0.481005 -0.657006 -0.58
-0.0880021 0.803008 -0.590002
0.602006 -0.527002 -0.6
-0.792008 -0.0170023 -0.610001
0.567 0.542008 -0.620001
-0.0509966 -0.775008 -0.630003
-0.481008 0.599 -0.640002
0.751009 -0.115996 -0.650002
-0.625 -0.41701 -0.660004
0.176995 0.721009 -0.670004
0.352011 -0.643 -0.680004
-0.68501 0.232993 -0.690005
0.654 0.287012 -0.700006
-0.283992 -0.64401 -0.710006
-0.222014 0.657 -0.720006
0.599011 -0.32999 -0.730008
-0.654 -0.159016 -0.740008
0.36899 0.549012 -0.750008
0.0980162 -0.643 -0.760008
-0.497014 0.39999 -0.770008
0.625 0.0390176 -0.780008
-0.424992 -0.442015 -0.790007
0.014984 0.600004 -0.800008
0.385016 -0.441995 -0.810006
-0.569008 0.0639873 -0.820007
0.451 0.328013 -0.830006
-0.107993 -0.532009 -0.840006
-0.272007 0.451004 -0.850006
0.489006 -0.144003 -0.860006
-0.443009 -0.216997 -0.870007
0.174013 0.442 -0.880008
0.163984 -0.42601 -0.890009
-0.389992 0.194022 -0.900009
0.399009 0.113976 -0.910009
-0.205024 -0.333991 -0.920009
-0.0699829 0.361011 -0.930008
0.274 -0.203009 -0.940008
-0.310991 -0.0330107 -0.950011
0.18599 0.210025 -0.960008
0.0040062 -0.242987 -0.970011
-0.136992 0.143983 -0.980011
0.140982 -0.0100121 -0.990011
VERTICES 200 400
1 0
1 1
1 2
1 3
1 4
1 5
1 6
1 7
1 8
1 9
1 10
1 11
1 12
1 13
1 14
1 15
1 16
1 17
1 18
1 19
1 20
1 21
1 22
1 23
1 24
1 25
1 26
1 27
1 28
1 29
1 30
1 31
1 32
1 33
1 34
1 35
1 36
1 37
1 38
1 39
1 40
1 41
1 42
1 43
1 44
1 45
1 46
1 47
1 48
1 49
1 50
1 51
1 52
1 53
1 54
1 55
1 56
1 57
1 58
1 59
1 60
1 61
1 62
1 63
1 64
1 65
1 66
1 67
1 68
1 69
1 70
1 71
1 72
1 73
1 74
1 75
1 76
1 77
1 78
1 79
1 80
1 81
1 82
1 83
1 84
1 85
1 86
1 87
1 88
1 89
1 90
1 91
1 92
1 93
1 94
1 95
1 96
1 97
1 98
1 99
1 100
1 101
1 102
1 103
1 104
1 105
1 106
1 107
1 108
1 109
1 110
1 111
1 112
1 113
1 114
1 115
1 116
1 117
1 118
1 119
1 120
1 121
1 122
1 123
1 124
1 125
1 126
1 127
1 128
1 129
1 130
1 131
1 132
1 133
1 134
1 135
1 136
1 137
1 138
1 139
1 140
1 141
1 142
1 143
1 144
1 145
1 146
1 147
1 148
1 149
1 150
1 151
1 152
1 153
1 154
1 155
1 156
1 157
1 158
1 159
1 160
1 161
1 162
1 163
1 164
1 165
1 166
1 167
1 168
1 169
1 170
1 171
1 172
1 173
1 174
1 175
1 176
1 177
1 178
1 179
1 180
1 181
1 182
1 183
1 184
1 185
1 186
1 187
1 188
1 189
1 190
1 191
1 192
1 193
1 194
1 195
1 196
1 197
1 198
1 199
POINT_DATA 200
VECTORS velocity float
0.00738118 0.00625465 0.000817661
-0.00734354 -0.00683084 -0.000639254
9.49092e-05 0.000549282 1.1359e-05
-1.04539e-05 -5.78869e-05 6.27225e-05
-9.02505e-05 0.000183097 4.80449e-05
1.8033e-05 -8.71194e-05 7.23806e-05
3.04295e-05 -5.88261e-05 5.55538e-05
-0.00014683 -6.12211e-06 5.0027e-05
8.89936e-05 0.000145214 5.52834e-05
4.64835e-05 -0.000169223 6.089e-05
-0.000131038 8.13077e-05 6.20401e-05
0.000123176 1.17909e-05 5.80811e-05
-7.12477e-05 -4.81151e-05 5.22568e-05
2.89152e-05 5.05353e-05 5.10807e-05
-2.91481e-05 -4.38725e-05 4.33278e-05
2.04316e-05 5.5883e-05 4.32085e-05
2.17125e-06 -6.64679e-05 4.79213e-05
-5.1362e-05 6.91792e-05 4.42186e-05
9.40536e-05 -3.21219e-05 4.71782e-05
-0.000101922 -3.67011e-05 4.87147e-05
5.47875e-05 9.29259e-05 5.09908e-05
1.98658e-05 -0.000113407 5.21806e-05
-8.86553e-05 6.89902e-05 5.26326e-05
0.000113662 8.55953e-06 5.30399e-05
-7.68332e-05 -8.35751e-05 5.18089e-05
-2.18568e-06 0.000110106 5.11916e-05
7.33187e-05 -7.38834e-05 5.19042e-05
-9.84536e-05 -2.15619e-08 4.86032e-05
7.04115e-05 6.74273e-05 4.8884e-05
3.58622e-06 -8.62365e-05 4.3479e-05
-5.90871e-05 6.07995e-05 4.76238e-05
8.05141e-05 1.17825e-06 4.3479e-05
-4.75217e-05 -5.55339e-05 4.15417e-05
-7.81483e-06 6.74164e-05 4.06543e-05
5.2908e-05 -4.07299e-05 3.91787e-05
-6.25958e-05 -8.40185e-06 3.94847e-05
2.90187e-05 5.25589e-05 3.36212e-05
1.2465e-05 -5.72994e-05 3.70343e-05
-5.07251e-05 2.66371e-05 3.3406e-05
5.0986e-05 2.02912e-05 3.35889e-05
-2.25966e-05 -4.96695e-05 3.39411e-05
-2.42364e-05 5.04636e-05 3.00096e-05
4.84976e-05 -2.08856e-05 3.49905e-05
-4.78911e-05 -2.9586e-05 2.90494e-05
1.4889e-05 5.4576e-05 2.97221e-05
3.00229e-05 -4.82283e-05 2.90684e-05
-5.09361e-05 1.63834e-05 3.31022e-05
4.95381e-05 3.02859e-05 2.64936e-05
-1.25979e-05 -5.83144e-05 2.69128e-05
-2.67634e-05 5.00269e-05 2.9863e-05
6.05462e-05 -1.37855e-05 2.72096e-05
-5.35752e-05 -2.70444e-05 2.80803e-05
1.70763e-05 5.98379e-05 2.74901e-05
2.82415e-05 -5.57348e-05 2.52816e-05
-6.00256e-05 2.04585e-05 2.33735e-05
5.89871e-05 2.89466e-05 2.4184e-05
-2.60709e-05 -5.61499e-05 2.58539e-05
-2.25048e-05 6.02188e-05 2.47785e-05
5.22258e-05 -3.17154e-05 2.59493e-05
-6.44418e-05 -2.11175e-05 2.26005e-05
3.61516e-05 5.10279e-05 2.51392e-05
8.34881e-06 -6.20539e-05 2.45417e-05
-5.2883e-05 3.92321e-05 2.3572e-05
6.42269e-05 6.05143e-06 2.31122e-05
-4.37151e-05 -4.85904e-05 2.04695e-05
-2.08601e-07 6.4918e-05 2.1806e-05
4.32151e-05 -4.87138e-05 2.31836e-05
-6.12163e-05 1.12041e-05 2.32186e-05
5.26688e-05 3.61748e-05 2.25367e-05
-1.48126e-05 -6.24438e-05 2.09029e-05
-3.1313e-05 5.57339e-05 1.97023e-05
6.11805e-05 -2.08822e-05 1.53556e-05
-5.804e-05 -2.11032e-05 1.93288e-05
2.68389e-05 5.85469e-05 1.5446e-05
1.93064e-05 -6.16111e-05 1.59493e-05
-5.20285e-05 3.45024e-05 1.68914e-05
6.12489e-05 6.5188e-06 1.67054e-05
-3.88582e-05 -4.90705e-05 1.48062e-05
1.24344e-06 6.16808e-05 1.66776e-05
4.33436e-05 -4.40507e-05 1.62306e-05
-6.27955e-05 3.86328e-06 1.22816e-05
4.95163e-05 3.68193e-05 1.35173e-05
-1.04674e-05 -6.20762e-05 1.2967e-05
-2.9936e-05 5.36621e-05 1.31471e-05
5.9026e-05 -1.84483e-05 1.12277e-05
-5.70983e-05 -2.56318e-05 1.12575e-05
2.41812e-05 5.58668e-05 8.45987e-06
1.60862e-05 -5.83842e-05 7.58628e-06
-5.32471e-05 3.06466e-05 8.66861e-06
5.99769e-05 1.48241e-05 8.00613e-06
-3.88627e-05 -4.73307e-05 6.98572e-06
-9.46357e-06 6.12614e-05 4.74396e-06
4.76478e-05 -4.05512e-05 6.06805e-06
-6.13036e-05 -1.27315e-06 4.74285e-06
4.65826e-05 4.04692e-05 4.03003e-06
-8.93243e-06 -6.03712e-05 4.44938e-06
-3.68194e-05 4.97395e-05 3.75639e-06
5.91727e-05 -1.45036e-05 1.78459e-06
-5.41249e-05 -2.94546e-05 1.76635e-06
2.40811e-05 5.68052e-05 3.90957e-08
2.20738e-05 -5.69514e-05 -9.75253e-07
-5.42086e-05 3.02218e-05 -1.01597e-06
5.87834e-05 1.49956e-05 -3.21252e-07
-3.34734e-05 -5.10462e-05 -2.45439e-06
-4.01775e-06 6.08238e-05 -2.29366e-06
4.32511e-05 -4.42761e-05 -2.45923e-06
-6.21092e-05 4.20254e-06 -4.51014e-06
4.85359e-05 4.01694e-05 -4.31522e-06
-5.93366e-06 -6.15981e-05 -3.68089e-06
-3.23268e-05 5.22896e-05 -5.53605e-06
5.99313e-05 -1.90169e-05 -8.06729e-06
-5.41082e-05 -2.94826e-05 -7.16403e-06
2.34779e-05 5.72177e-05 -9.51285e-06
1.99753e-05 -5.8753e-05 -9.56011e-06
-5.41906e-05 2.98633e-05 -8.60018e-06
6.18393e-05 1.27476e-05 -9.72084e-06
-3.56164e-05 -5.02902e-05 -1.15364e-05
-5.22382e-06 6.29107e-05 -1.18135e-05
4.77333e-05 -4.06029e-05 -1.36788e-05
-6.20729e-05 -2.35505e-07 -1.44765e-05
4.33962e-05 4.28303e-05 -1.26776e-05
-7.64655e-06 -6.27478e-05 -1.44792e-05
-3.75454e-05 4.94177e-05 -1.60971e-05
6.10273e-05 -1.2926e-05 -1.84938e-05
-5.70358e-05 -2.80461e-05 -1.64074e-05
2.05419e-05 5.94799e-05 -1.72208e-05
2.38727e-05 -5.82848e-05 -1.72886e-05
-5.71141e-05 2.39056e-05 -1.79657e-05
5.94152e-05 1.81395e-05 -1.92275e-05
-3.56974e-05 -5.39824e-05 -2.07504e-05
-1.27992e-05 6.07412e-05 -2.10357e-05
4.94879e-05 -4.18791e-05 -1.77345e-05
-6.39125e-05 -4.11252e-06 -2.15615e-05
4.64373e-05 4.53878e-05 -2.00482e-05
-4.62289e-06 -6.53488e-05 -1.97421e-05
-4.0338e-05 5.30476e-05 -2.04777e-05
6.55733e-05 -1.20194e-05 -1.89752e-05
-5.29536e-05 -3.61959e-05 -2.36421e-05
1.65529e-05 6.40578e-05 -2.23041e-05
3.12434e-05 -5.78369e-05 -2.14384e-05
-6.12353e-05 2.28872e-05 -2.20653e-05
6.05546e-05 2.48435e-05 -2.47329e-05
-2.80332e-05 -5.92443e-05 -2.20868e-05
-2.16303e-05 5.83246e-05 -2.67605e-05
5.49119e-05 -2.44007e-05 -2.82857e-05
-5.9101e-05 -1.73552e-05 -2.59588e-05
3.20222e-05 5.32904e-05 -2.61105e-05
1.56228e-05 -5.6139e-05 -2.98434e-05
-5.06123e-05 3.1576e-05 -2.94222e-05
5.69195e-05 1.37781e-05 -2.97189e-05
-3.56826e-05 -4.85964e-05 -2.6888e-05
-1.05495e-05 5.4438e-05 -3.10331e-05
4.67623e-05 -3.21759e-05 -2.93955e-05
-5.67513e-05 -8.17556e-06 -2.88637e-05
3.21208e-05 4.48478e-05 -3.06555e-05
1.17975e-05 -5.319e-05 -3.3063e-05
-4.39179e-05 3.57564e-05 -2.86221e-05
5.58657e-05 6.09234e-06 -2.93755e-05
-3.22807e-05 -4.50618e-05 -2.96149e-05
-1.39004e-05 5.25495e-05 -3.33844e-05
4.54618e-05 -3.45302e-05 -2.87885e-05
-5.36945e-05 -1.54849e-05 -3.16487e-05
2.62486e-05 5.17897e-05 -3.11997e-05
2.24799e-05 -5.35764e-05 -3.54329e-05
-5.54257e-05 2.30966e-05 -3.37473e-05
5.76087e-05 2.72542e-05 -3.47104e-05
-1.5936e-05 -6.4625e-05 -3.91021e-05
-3.51857e-05 5.9292e-05 -3.84339e-05
7.33406e-05 -1.48814e-05 -3.90023e-05
-6.40384e-05 -4.54382e-05 -4.17587e-05
1.10907e-05 8.11488e-05 -4.51872e-05
5.37139e-05 -7.08574e-05 -4.4729e-05
-9.23103e-05 1.07364e-05 -4.62762e-05
7.45472e-05 6.72567e-05 -5.50624e-05
-1.04234e-05 -0.000103512 -5.29077e-05
-6.89179e-05 8.70198e-05 -5.31237e-05
0.000107909 -1.60309e-05 -5.44466e-05
-9.46958e-05 -6.46018e-05 -5.33561e-05
2.71187e-05 0.000117114 -5.35907e-05
5.42258e-05 -0.000103649 -5.07879e-05
-0.000106516 3.96695e-05 -5.13818e-05
0.00010739 3.64003e-05 -4.68548e-05
-5.23127e-05 -8.4871e-05 -4.84651e-05
-5.9651e-06 8.69382e-05 -4.59356e-05
4.57729e-05 -5.69031e-05 -4.63517e-05
-4.7456e-05 2.86447e-05 -4.52856e-05
4.45912e-05 -2.31777e-05 -4.45917e-05
-5.8777e-05 2.11047e-05 -4.9099e-05
8.84096e-05 4.43711e-06 -5.2739e-05
-0.000108876 -6.53566e-05 -6.07953e-05
5.22947e-05 0.000144372 -6.12577e-05
6.36125e-05 -0.000159757 -6.25754e-05
-0.000157281 6.32383e-05 -5.78799e-05
0.000113658 7.53035e-05 -5.19718e-05
9.57821e-06 -5.81339e-05 -5.58823e-05
5.9919e-05 -7.14036e-05 -7.71824e-05
-6.76812e-05 0.000165551 -5.33366e-05
4.12858e-05 8.92724e-05 -7.77196e-05
5.26593e-05 -0.000116186 -7.80964e-05
-0.000117443 -8.09398e-05 -8.02066e-05
VECTORS force float
0.0219192 0.0183291 0.00247558
-0.0217899 -0.0203023 -0.00187027
0.000312829 0.00188807 3.0456e-05
-3.86178e-05 -0.000191654 0.000209274
-0.000298659 0.000613988 0.000160272
6.11562e-05 -0.00028951 0.000240955
0.000103991 -0.000206646 0.00018271
-0.000489643 -2.01252e-05 0.000166618
0.000296408 0.00048356 0.000184239
0.00015279 -0.000563667 0.000202303
-0.000436071 0.000270964 0.000206647
0.000410265 3.90859e-05 0.000193514
-0.000237601 -0.000159953 0.00017403
9.65298e-05 0.000168347 0.000170207
-9.7227e-05 -0.000146338 0.000144375
6.80499e-05 0.000186098 0.000144106
7.15446e-06 -0.000221265 0.000159852
-0.000170885 0.00023035 0.000147546
0.000313101 -0.00010707 0.000157396
-0.000339447 -0.000122169 0.000162451
0.000182505 0.000309529 0.000169995
6.62454e-05 -0.000377785 0.000173889
-0.000295478 0.000229814 0.000175372
0.000378706 2.86796e-05 0.000176678
-0.000255932 -0.000278594 0.000172592
-7.46506e-06 0.000366895 0.000170499
0.000244456 -0.000246087 0.000172873
-0.000328097 -2.42585e-07 0.000161875
0.000234503 0.000224819 0.000162804
1.20607e-05 -0.000287404 0.000144835
-0.000196995 0.000202503 0.000158642
0.000268306 4.03187e-06 0.000144847
-0.000158334 -0.000185103 0.000138437
-2.60746e-05 0.000224674 0.000135484
0.000176313 -0.000135744 0.000130606
-0.000208588 -2.80432e-05 0.000131593
9.67655e-05 0.000175104 0.000112135
4.15648e-05 -0.000190933 0.000123446
-0.000168975 8.885e-05 0.000111432
0.000169913 6.75468e-05 0.000112026
-7.53674e-05 -0.000165464 0.000113208
-8.06547e-05 0.000168161 0.000100131
0.000161578 -6.96408e-05 0.00011669
-0.000159588 -9.84758e-05 9.69346e-05
4.97058e-05 0.000181763 9.91928e-05
9.99577e-05 -0.000160712 9.69859e-05
-0.000169691 5.4642e-05 0.000110413
0.000165073 0.000100839 8.84052e-05
-4.20537e-05 -0.000194222 8.98333e-05
-8.91539e-05 0.000166714 9.95972e-05
0.000201671 -4.6007e-05 9.08043e-05
-0.000178572 -9.01317e-05 9.36091e-05
5.69474e-05 0.0001994 9.16586e-05
9.41015e-05 -0.000185771 8.42756e-05
-0.000200042 6.82156e-05 7.79179e-05
0.000196605 9.64392e-05 8.0624e-05
-8.69161e-05 -0.000187146 8.61565e-05
-7.50155e-05 0.000200745 8.25651e-05
0.000174096 -0.000105722 8.64503e-05
-0.000214799 -7.03628e-05 7.53262e-05
0.000120505 0.000170129 8.37377e-05
2.78668e-05 -0.000206881 8.17642e-05
-0.000176279 0.000130787 7.85304e-05
0.00021411 2.01811e-05 7.70178e-05
-0.000145725 -0.00016194 6.82074e-05
-6.74286e-07 0.000216391 7.26669e-05
0.000144014 -0.000162397 7.72406e-05
-0.000204057 3.7356e-05 7.73691e-05
0.000175574 0.000120566 7.50862e-05
-4.94048e-05 -0.000208132 6.96339e-05
-0.00010435 0.000185785 6.5646e-05
0.000203893 -6.96343e-05 5.11814e-05
-0.000193462 -7.03414e-05 6.44139e-05
8.9475e-05 0.000195103 5.14951e-05
6.43321e-05 -0.000205349 5.31857e-05
-0.00017341 0.000115003 5.63009e-05
0.000204158 2.17455e-05 5.56816e-05
-0.000129524 -0.000163551 4.93555e-05
4.13761e-06 0.000205599 5.55697e-05
0.000144488 -0.000146818 5.40908e-05
-0.000209307 1.28856e-05 4.09231e-05
0.000165045 0.00012273 4.50542e-05
-3.49024e-05 -0.00020691 4.32061e-05
-9.97856e-05 0.000178867 4.38091e-05
0.000196748 -6.14962e-05 3.73824e-05
-0.00019032 -8.54361e-05 3.7511e-05
8.06183e-05 0.0001862 2.81798e-05
5.36401e-05 -0.0001946 2.53037e-05
-0.000177452 0.000102177 2.88693e-05
0.00019991 4.93973e-05 2.66829e-05
-0.00012953 -0.00015777 2.32588e-05
-3.15232e-05 0.000204192 1.58183e-05
0.00015879 -0.00013519 2.02141e-05
-0.000204335 -4.24087e-06 1.58041e-05
0.000155276 0.000134882 1.34339e-05
-2.97819e-05 -0.000201229 1.48092e-05
-0.000122704 0.000165806 1.25253e-05
0.000197225 -4.83677e-05 5.93166e-06
-0.000180424 -9.81511e-05 5.90416e-06
8.02446e-05 0.000189356 1.16686e-07
7.356e-05 -0.000189839 -3.23467e-06
-0.000180697 0.000100726 -3.40049e-06
0.000195941 4.99659e-05 -1.06761e-06
-0.000111604 -0.000170119 -8.19437e-06
-1.341e-05 0.000202734 -7.6354e-06
0.000144179 -0.00014756 -8.20316e-06
-0.00020702 1.3996e-05 -1.50245e-05
0.000161769 0.000133901 -1.43861e-05
-1.97824e-05 -0.000205314 -1.22953e-05
-0.000107781 0.000174257 -1.84361e-05
0.000199767 -6.3359e-05 -2.68854e-05
-0.000180327 -9.83001e-05 -2.38565e-05
7.82607e-05 0.000190717 -3.1696e-05
6.66112e-05 -0.000195819 -3.18342e-05
-0.000180627 9.95318e-05 -2.86732e-05
0.000206113 4.25169e-05 -3.23779e-05
-0.000118703 -0.000167633 -3.84579e-05
-1.74205e-05 0.000209692 -3.9355e-05
0.000159097 -0.000135357 -4.55765e-05
-0.000206903 -7.89184e-07 -4.82302e-05
0.000144657 0.000142751 -4.22618e-05
-2.5495e-05 -0.000209154 -4.82486e-05
-0.00012514 0.000164726 -5.36388e-05
0.000203417 -4.30806e-05 -6.16263e-05
-0.000190077 -9.35072e-05 -5.46533e-05
6.84655e-05 0.000198256 -5.74033e-05
7.95831e-05 -0.00019426 -5.76086e-05
-0.000190371 7.96906e-05 -5.98773e-05
0.000198037 6.04743e-05 -6.40624e-05
-0.000118968 -0.000179953 -6.91245e-05
-4.26822e-05 0.000202464 -7.00906e-05
0.000164964 -0.000139552 -5.91115e-05
-0.00021304 -1.37273e-05 -7.1851e-05
0.000154769 0.0001513 -6.68034e-05
-1.53934e-05 -0.000217822 -6.58021e-05
-0.000134475 0.000176784 -6.82335e-05
0.000218574 -4.0051e-05 -6.32423e-05
-0.000176523 -0.000120666 -7.87497e-05
5.51686e-05 0.000213532 -7.43242e-05
0.000104167 -0.000192767 -7.14183e-05
-0.000204128 7.62857e-05 -7.35264e-05
0.000201817 8.28416e-05 -8.2406e-05
-9.34077e-05 -0.00019747 -7.36222e-05
-7.21216e-05 0.000194397 -8.91787e-05
0.000183057 -8.13595e-05 -9.42484e-05
-0.000196982 -5.78609e-05 -8.65376e-05
0.000106713 0.00017763 -8.70338e-05
5.20907e-05 -0.000187106 -9.9488e-05
-0.000168708 0.000105251 -9.80617e-05
0.000189673 4.59523e-05 -9.91115e-05
-0.000118865 -0.000161949 -8.96921e-05
-3.52052e-05 0.000181362 -0.000103526
0.00015584 -0.000107188 -9.80385e-05
-0.000189038 -2.73179e-05 -9.63237e-05
0.000106988 0.000149462 -0.000102243
3.93584e-05 -0.000177216 -0.000110277
-0.000146358 0.000119065 -9.54947e-05
0.000186069 2.04178e-05 -9.80433e-05
-0.000107467 -0.000150172 -9.88149e-05
-4.6399e-05 0.00017506 -0.000111366
0.000151504 -0.000114954 -9.60637e-05
-0.000178856 -5.17171e-05 -0.000105601
8.74253e-05 0.00017258 -0.000104043
7.4973e-05 -0.000178507 -0.000118166
-0.000184693 7.696e-05 -0.0001125
0.000191943 9.08892e-05 -0.000115762
-5.31546e-05 -0.000215345 -0.000130302
-0.000117262 0.0001976 -0.000128112
0.000244406 -4.96406e-05 -0.000129962
-0.000213459 -0.000151362 -0.000139134
3.7108e-05 0.000270401 -0.000150501
0.000178889 -0.00023622 -0.000148981
-0.000307606 3.59463e-05 -0.000154113
0.000248546 0.000223972 -0.000183384
-3.4943e-05 -0.000344903 -0.000176187
-0.000229535 0.000290091 -0.000176953
0.000359545 -5.35981e-05 -0.000181341
-0.000315597 -0.000215162 -0.000177777
9.04807e-05 0.000390146 -0.000178531
0.00018063 -0.000345314 -0.000169292
-0.000354775 0.000132125 -0.000171297
0.000357584 0.000121305 -0.000156291
-0.000174047 -0.000282631 -0.000161693
-1.99912e-05 0.000289389 -0.000153282
0.000152422 -0.00018934 -0.00015465
-0.000158055 9.5353e-05 -0.000151032
0.000148623 -7.72015e-05 -0.000148644
-0.000195931 7.01826e-05 -0.000163615
0.000294505 1.51817e-05 -0.000175642
-0.000362526 -0.000217776 -0.000202571
0.000174117 0.000480689 -0.000204143
0.000211654 -0.000531934 -0.000208577
-0.00052367 0.000210584 -0.000192909
0.000378443 0.000250699 -0.000173267
3.19969e-05 -0.000193732 -0.000186246
0.000199587 -0.000237773 -0.000257197
-0.000225298 0.000550765 -0.000177873
0.000137187 0.000297276 -0.000258949
0.000175635 -0.000386831 -0.00026021
-0.000391193 -0.000269056 -0.000267236
SCALARS mass float 1
LOOKUP_TABLE default
1
1
1
1
1
1
1
1
1
1
1
1
1
1
1
1
1
1
1
1
1
1
1
1
1
1
1
1
1
1
1
1
1
1
1
1
1
1
1
1
1
1
1
1
1
1
1
1
1
1
1
1
1
1
1
1
1
1
1
1
1
1
1
1
1
1
1
1
1
1
1
1
1
1
1
1
1
1
1
1
1
1
1
1
1
1
1
1
1
1
1
1
1
1
1
1
1
1
1
1
1
1
1
1
1
1
1
1
1
1
1
1
1
1
1
1
1
1
1
1
1
1
1
1
1
1
1
1
1
1
1
1
1
1
1
1
1
1
1
1
1
1
1
1
1
1
1
1
1
1
1
1
1
1
1
1
1
1
1
1
1
1
1
1
1
1
1
1
1
1
1
1
1
1
1
1
1
1
1
1
1
1
1
1
1
1
1
1
1
1
1
1
1
1
1
1
1
1
1
1
