# vtk DataFile Version 3.0
Molecular Dynamics Particle Data
ASCII
DATASET POLYDATA
POINTS 200 float
0.00422197 0.0035581 1.00047
-0.108199 -0.0989085 0.989637
0.0170566 0.198335 0.98
0.147994 -0.193035 0.970038
-0.276054 0.0491102 0.960027
0.26301 0.167948 0.950042
-0.0889816 -0.329036 0.940033
-0.169088 0.326 0.930029
0.368053 -0.133913 0.920033
-0.382972 -0.158101 0.910037
0.184921 0.395048 0.900037
0.136074 -0.434993 0.890035
-0.411043 0.237971 0.880031
0.482017 0.10603 0.87003
-0.293018 -0.417026 0.860023
-0.0679878 0.522033 0.850023
0.415 -0.350039 0.840027
-0.55703 -0.0229585 0.830024
0.406056 0.403981 0.820026
-0.0270611 -0.586021 0.810028
-0.383967 0.461056 0.80003
0.608009 -0.082068 0.790031
-0.514053 -0.356959 0.780031
0.140068 0.622 0.770031
0.322954 -0.56405 0.76003
-0.63 0.201066 0.75003
0.611042 0.281956 0.74003
-0.264059 -0.63 0.730028
-0.234958 0.65304 0.720028
0.623 -0.328052 0.710023
-0.691035 -0.181964 0.700027
0.391048 0.609 0.690023
0.123972 -0.723033 0.680023
-0.587 0.45504 0.670023
0.749031 0.0619756 0.660022
-0.516037 -0.558 0.650022
0.00401741 0.768031 0.64002
0.522 -0.575034 0.630021
-0.78103 0.072016 0.62002
0.63103 0.479011 0.61002
-0.143014 -0.787029 0.60002
-0.430014 0.683029 0.590018
0.786028 -0.215012 0.58002
-0.731027 -0.375018 0.570017
0.288009 0.777032 0.560018
0.315018 -0.774027 0.550017
-0.76103 0.36001 0.54002
0.810028 0.250018 0.530016
-0.432007 -0.737035 0.520016
-0.181016 0.841029 0.510018
0.706036 -0.502 0.500016
-0.865032 -0.108016 0.490017
0.569005 0.668036 0.480016
0.0320169 -0.882033 0.470015
-0.623036 0.63201 0.460013
0.892035 -0.0459827 0.450014
-0.692015 -0.572034 0.440015
0.124987 0.894036 0.430014
0.515031 -0.747019 0.420015
-0.889038 0.204987 0.410012
0.797021 0.45203 0.400015
-0.283998 -0.876037 0.390014
-0.384031 0.842022 0.380013
0.855038 -0.363 0.370013
-0.879024 -0.311029 0.360011
0.44 0.827039 0.350012
0.235026 -0.911028 0.340013
-0.792037 0.514 0.330013
0.935031 0.156022 0.320012
-0.586 -0.749037 0.310012
-0.0740187 0.951033 0.300011
0.699037 -0.65301 0.290009
-0.960035 0.00898734 0.280011
0.716016 0.643035 0.270009
-0.0939884 -0.961037 0.26001
-0.582031 0.77402 0.25001
0.954037 -0.177996 0.24001
-0.826022 -0.514028 0.230009
0.262 0.940037 0.22001
0.442026 -0.872024 0.21001
-0.917038 0.345 0.200007
0.911028 0.366021 0.190008
-0.426005 -0.887037 0.180008
-0.286018 0.943032 0.170008
0.849035 -0.503007 0.160006
-0.968034 -0.203015 0.150006
0.577014 0.804033 0.140005
0.11801 -0.984035 0.130005
-0.753031 0.647018 0.120005
0.993036 0.0310089 0.110005
-0.712022 -0.695026 0.100004
0.0559943 0.994037 0.0900027
0.631027 -0.772023 0.0800034
-0.987037 0.143 0.0700027
0.825026 0.562023 0.0600024
-0.229005 -0.972036 0.0500026
-0.488021 0.872029 0.0400023
0.949036 -0.313009 0.0300011
-0.912032 -0.410018 0.0200011
0.395014 0.919034 0.01
0.329012 -0.944034 -5.84291e-07
-0.881032 0.474018 -0.0100006
0.969035 0.245009 -0.02
-0.54902 -0.83503 -0.0300014
-0.160001 0.986036 -0.0400013
0.784023 -0.619024 -0.0500014
-0.996037 -0.0729975 -0.0600026
0.685028 0.726022 -0.0700025
-0.0150036 -0.997037 -0.0800022
-0.662019 0.744031 -0.090003
0.990036 -0.101011 -0.100005
-0.798032 -0.593018 -0.110004
0.187014 0.975034 -0.120006
0.520009 -0.844035 -0.130005
-0.952032 0.271018 -0.140005
0.884037 0.443007 -0.150006
-0.352021 -0.922029 -0.160006
-0.363 0.916038 -0.170007
0.885027 -0.430024 -0.180008
-0.941037 -0.28 -0.190009
0.504023 0.840023 -0.200007
0.195995 -0.958038 -0.210009
-0.790022 0.573028 -0.22001
0.967037 0.110992 -0.230011
-0.636034 -0.733017 -0.24001
-0.0259877 0.968036 -0.25001
0.671013 -0.694035 -0.26001
-0.961034 0.0590143 -0.27001
0.746036 0.604006 -0.280011
-0.141021 -0.947032 -0.290011
-0.533 0.791036 -0.300012
0.924028 -0.222025 -0.31001
-0.829038 -0.459 -0.320012
0.300028 0.895025 -0.330011
0.382 -0.859039 -0.340011
-0.859023 0.374031 -0.350011
0.882039 0.302993 -0.360011
-0.444031 -0.816021 -0.370013
-0.22299 0.898038 -0.380012
0.767019 -0.509035 -0.390012
-0.905037 -0.141986 -0.400012
0.569036 0.713014 -0.410014
0.0619832 -0.905035 -0.420012
-0.654011 0.623035 -0.430016
0.898033 -0.0180146 -0.440017
-0.670035 -0.590005 -0.450015
0.0950192 0.883032 -0.460015
0.523002 -0.711034 -0.470018
-0.861029 0.170019 -0.480018
0.745034 0.453008 -0.490018
-0.241021 -0.832028 -0.500016
-0.381005 0.771032 -0.510019
0.796026 -0.309019 -0.520018
-0.790034 -0.308002 -0.530017
0.372019 0.755024 -0.540018
0.234007 -0.802031 -0.55002
-0.709024 0.429021 -0.560017
0.806033 0.161003 -0.570018
-0.481019 -0.657024 -0.580018
-0.0880083 0.803031 -0.59002
0.602025 -0.52702 -0.600017
-0.792032 -0.0170093 -0.610019
0.567015 0.54203 -0.620019
-0.0509865 -0.775032 -0.630021
-0.481033 0.599013 -0.64002
0.751034 -0.115984 -0.65002
-0.625002 -0.417039 -0.660022
0.176979 0.721036 -0.670022
0.352044 -0.643 -0.680022
-0.685038 0.232973 -0.690023
0.654 0.287048 -0.700024
-0.283968 -0.644041 -0.710024
-0.222055 0.657 -0.720025
0.599043 -0.32996 -0.730033
-0.654 -0.159062 -0.740031
0.368959 0.549052 -0.750031
0.0980647 -0.643003 -0.760032
-0.497057 0.399962 -0.770032
0.625016 0.0390703 -0.780032
-0.424968 -0.442062 -0.79003
0.0149361 0.600022 -0.80003
0.385064 -0.441979 -0.810026
-0.569031 0.0639491 -0.820028
0.451 0.328052 -0.830025
-0.107973 -0.532034 -0.840026
-0.272028 0.451017 -0.850025
0.489027 -0.144014 -0.860024
-0.443035 -0.216987 -0.870028
0.174053 0.442 -0.880031
0.163935 -0.426039 -0.890036
-0.389969 0.194087 -0.900037
0.399038 0.113904 -0.910037
-0.205094 -0.333962 -0.920035
-0.0699318 0.361045 -0.930031
0.274004 -0.203035 -0.940033
-0.310964 -0.0330428 -0.950045
0.185959 0.210099 -0.960032
0.00402473 -0.242946 -0.970046
-0.136968 0.14393 -0.980046
0.14093 -0.0100485 -0.990048
VERTICES 200 400
1 0
1 1
1 2
1 3
1 4
1 5
1 6
1 7
1 8
1 9
1 10
1 11
1 12
1 13
1 14
1 15
1 16
1 17
1 18
1 19
1 20
1 21
1 22
1 23
1 24
1 25
1 26
1 27
1 28
1 29
1 30
1 31
1 32
1 33
1 34
1 35
1 36
1 37
1 38
1 39
1 40
1 41
1 42
1 43
1 44
1 45
1 46
1 47
1 48
1 49
1 50
1 51
1 52
1 53
1 54
1 55
1 56
1 57
1 58
1 59
1 60
1 61
1 62
1 63
1 64
1 65
1 66
1 67
1 68
1 69
1 70
1 71
1 72
1 73
1 74
1 75
1 76
1 77
1 78
1 79
1 80
1 81
1 82
1 83
1 84
1 85
1 86
1 87
1 88
1 89
1 90
1 91
1 92
1 93
1 94
1 95
1 96
1 97
1 98
1 99
1 100
1 101
1 102
1 103
1 104
1 105
1 106
1 107
1 108
1 109
1 110
1 111
1 112
1 113
1 114
1 115
1 116
1 117
1 118
1 119
1 120
1 121
1 122
1 123
1 124
1 125
1 126
1 127
1 128
1 129
1 130
1 131
1 132
1 133
1 134
1 135
1 136
1 137
1 138
1 139
1 140
1 141
1 142
1 143
1 144
1 145
1 146
1 147
1 148
1 149
1 150
1 151
1 152
1 153
1 154
1 155
1 156
1 157
1 158
1 159
1 160
1 161
1 162
1 163
1 164
1 165
1 166
1 167
1 168
1 169
1 170
1 171
1 172
1 173
1 174
1 175
1 176
1 177
1 178
1 179
1 180
1 181
1 182
1 183
1 184
1 185
1 186
1 187
1 188
1 189
1 190
1 191
1 192
1 193
1 194
1 195
1 196
1 197
1 198
1 199
POINT_DATA 200
VECTORS velocity float
0.0127699 0.0106313 0.00145077
-0.0126911 -0.0118295 -0.00108455
0.000186379 0.00114865 1.61599e-05
-2.41369e-05 -0.000114634 0.000125616
-0.000178511 0.000369254 9.62121e-05
3.69787e-05 -0.000173442 0.000144487
6.3168e-05 -0.000126957 0.000108925
-0.000293862 -1.20036e-05 9.99307e-05
0.000177775 0.000289994 0.00011053
9.1057e-05 -0.00033808 0.000121188
-0.000261427 0.000162556 0.000123942
0.000246053 2.33692e-05 0.000116069
-0.00014259 -9.58459e-05 0.000104372
5.79717e-05 0.000100967 0.000102098
-5.83804e-05 -8.78266e-05 8.66046e-05
4.0823e-05 0.000111624 8.64781e-05
4.26326e-06 -0.000132678 9.59446e-05
-0.000102443 0.000138144 8.85681e-05
0.00018774 -6.42475e-05 9.44823e-05
-0.000203578 -7.3228e-05 9.75135e-05
0.000109476 0.000185648 0.000102012
3.97338e-05 -0.000226604 0.00010434
-0.000177247 0.000137843 0.000105222
0.000227182 1.72276e-05 0.000105989
-0.000153513 -0.000167145 0.00010354
-4.51026e-06 0.000220109 0.000102275
0.000146682 -0.000147608 0.000103694
-0.000196845 -1.73707e-07 9.71014e-05
0.000140679 0.000134896 9.76644e-05
7.25268e-06 -0.000172434 8.68881e-05
-0.000118203 0.000121495 9.51687e-05
0.000160982 2.41791e-06 8.69062e-05
-9.49973e-05 -0.000111066 8.30502e-05
-1.56396e-05 0.000134804 8.12908e-05
0.000105785 -8.14475e-05 7.83606e-05
-0.000125153 -1.68153e-05 7.89546e-05
5.80707e-05 0.000105057 6.72835e-05
2.49321e-05 -0.00011456 7.40625e-05
-0.000101388 5.32996e-05 6.68528e-05
0.000101949 4.05219e-05 6.72159e-05
-4.52081e-05 -9.92846e-05 6.79145e-05
-4.84021e-05 0.000100897 6.00694e-05
9.6953e-05 -4.17724e-05 7.00045e-05
-9.57533e-05 -5.90872e-05 5.8157e-05
2.97998e-05 0.000109082 5.94955e-05
5.99758e-05 -9.64284e-05 5.81853e-05
-0.000101832 3.27696e-05 6.62305e-05
9.90421e-05 6.05049e-05 5.30369e-05
-2.52297e-05 -0.000116541 5.38916e-05
-5.34994e-05 0.000100033 5.97416e-05
0.000120996 -2.76122e-05 5.44762e-05
-0.000107128 -5.40576e-05 5.61785e-05
3.41764e-05 0.000119617 5.49983e-05
5.64388e-05 -0.000111445 5.05836e-05
-0.00012 4.09344e-05 4.67595e-05
0.000117946 5.78394e-05 4.83888e-05
-5.21474e-05 -0.00011228 5.17006e-05
-4.49793e-05 0.000120421 4.95598e-05
0.000104447 -6.34291e-05 5.18875e-05
-0.000128855 -4.21883e-05 4.52152e-05
7.23035e-05 0.00010205 5.02669e-05
1.67064e-05 -0.000124111 4.90683e-05
-0.000105735 7.84704e-05 4.71418e-05
0.000128456 1.21039e-05 4.62139e-05
-8.74328e-05 -9.71541e-05 4.09332e-05
-4.03703e-07 0.000129831 4.35964e-05
8.641e-05 -9.74312e-05 4.63488e-05
-0.000122427 2.24167e-05 4.641e-05
0.00010534 7.23383e-05 4.50517e-05
-2.96488e-05 -0.000124863 4.17801e-05
-6.26116e-05 0.000111466 3.93901e-05
0.000122334 -4.17757e-05 3.07064e-05
-0.000116079 -4.22073e-05 3.86361e-05
5.36801e-05 0.000117075 3.08912e-05
3.85901e-05 -0.000123211 3.18956e-05
-0.000104054 6.90002e-05 3.37748e-05
0.000122491 1.30394e-05 3.34005e-05
-7.7714e-05 -9.81334e-05 2.96074e-05
2.48134e-06 0.000123358 3.33368e-05
8.66825e-05 -8.80975e-05 3.2445e-05
-0.000125581 7.73402e-06 2.45535e-05
9.90255e-05 7.36359e-05 2.70232e-05
-2.09437e-05 -0.000124143 2.59136e-05
-5.98707e-05 0.000107317 2.62786e-05
0.000118036 -3.69078e-05 2.24338e-05
-0.00011419 -5.12553e-05 2.25044e-05
4.83644e-05 0.000111719 1.69123e-05
3.21806e-05 -0.000116758 1.51713e-05
-0.000106485 6.12883e-05 1.73383e-05
0.000119944 2.96359e-05 1.60068e-05
-7.7711e-05 -9.46631e-05 1.39779e-05
-1.89087e-05 0.000122512 9.49073e-06
9.52801e-05 -8.11053e-05 1.21298e-05
-0.000122598 -2.54317e-06 9.48058e-06
9.31637e-05 8.09246e-05 8.05678e-06
-1.78597e-05 -0.000120735 8.89054e-06
-7.36216e-05 9.94771e-05 7.50467e-06
0.000118338 -2.90051e-05 3.56113e-06
-0.000108244 -5.88976e-05 3.52764e-06
4.81525e-05 0.000113606 7.83856e-08
4.41311e-05 -0.0001139 -1.94163e-06
-0.000108409 6.04397e-05 -2.02738e-06
0.000117559 2.99826e-05 -6.46108e-07
-6.69444e-05 -0.000102082 -4.90395e-06
-8.04394e-06 0.000121637 -4.58536e-06
8.65025e-05 -8.8538e-05 -4.91718e-06
-0.000124208 8.39487e-06 -9.01604e-06
9.70649e-05 8.03339e-05 -8.63687e-06
-1.18746e-05 -0.000123186 -7.36805e-06
-6.46511e-05 0.000104567 -1.10799e-05
0.000119855 -3.80182e-05 -1.61286e-05
-0.000108211 -5.8957e-05 -1.43294e-05
4.69476e-05 0.000114428 -1.9017e-05
3.9969e-05 -0.000117483 -1.91048e-05
-0.000108374 5.9714e-05 -1.71965e-05
0.000123669 2.5502e-05 -1.94265e-05
-7.12236e-05 -0.000100575 -2.30623e-05
-1.04572e-05 0.000125811 -2.36088e-05
9.54603e-05 -8.12051e-05 -2.73413e-05
-0.000124139 -4.7303e-07 -2.89356e-05
8.67904e-05 8.56527e-05 -2.53522e-05
-1.52841e-05 -0.000125486 -2.8949e-05
-7.50828e-05 9.8837e-05 -3.21844e-05
0.00012205 -2.58502e-05 -3.69654e-05
-0.000114053 -5.60961e-05 -3.28089e-05
4.10792e-05 0.000118956 -3.44271e-05
4.77456e-05 -0.000116559 -3.45613e-05
-0.000114225 4.78135e-05 -3.59142e-05
0.000118813 3.62924e-05 -3.84272e-05
-7.13804e-05 -0.000107967 -4.14747e-05
-2.561e-05 0.00012147 -4.20472e-05
9.89744e-05 -8.37314e-05 -3.54644e-05
-0.000127818 -8.2381e-06 -4.31017e-05
9.28557e-05 9.07771e-05 -4.00865e-05
-9.24134e-06 -0.000130693 -3.94783e-05
-8.06828e-05 0.000106063 -4.09513e-05
0.000131129 -2.40148e-05 -3.79524e-05
-0.000105897 -7.23959e-05 -4.72703e-05
3.30806e-05 0.0001281 -4.46091e-05
6.24956e-05 -0.000115646 -4.28742e-05
-0.000122459 4.57474e-05 -4.41284e-05
0.000121073 4.97034e-05 -4.94592e-05
-5.60236e-05 -0.000118467 -4.41856e-05
-4.32736e-05 0.000116623 -5.35105e-05
0.000109819 -4.87938e-05 -5.65606e-05
-0.000118162 -3.47272e-05 -5.1923e-05
6.40081e-05 0.000106564 -5.22339e-05
3.12573e-05 -0.000112251 -5.96862e-05
-0.000101211 6.31291e-05 -5.88499e-05
0.00011381 2.75582e-05 -5.94576e-05
-7.13129e-05 -9.71697e-05 -5.38096e-05
-2.11121e-05 0.000108836 -6.20909e-05
9.3503e-05 -6.43167e-05 -5.88148e-05
-0.000113429 -1.6389e-05 -5.77822e-05
6.41998e-05 8.96761e-05 -6.13378e-05
2.36107e-05 -0.000106331 -6.61598e-05
-8.78158e-05 7.14387e-05 -5.72945e-05
0.00011165 1.22427e-05 -5.88164e-05
-6.44907e-05 -9.0106e-05 -5.92766e-05
-2.78315e-05 0.000105038 -6.68136e-05
9.09153e-05 -6.89444e-05 -5.76537e-05
-0.000107315 -3.10213e-05 -6.33572e-05
5.24215e-05 0.00010356 -6.24491e-05
4.49899e-05 -0.000107097 -7.0903e-05
-0.000110829 4.61467e-05 -6.75206e-05
0.000115166 5.45323e-05 -6.94517e-05
-3.18914e-05 -0.000129204 -7.8178e-05
-7.03601e-05 0.00011856 -7.68623e-05
0.000146632 -2.97942e-05 -7.79688e-05
-0.000128076 -9.08114e-05 -8.34706e-05
2.22765e-05 0.000162235 -9.02836e-05
0.000107322 -0.000141735 -8.93765e-05
-0.000184548 2.15896e-05 -9.24468e-05
0.000149136 0.00013433 -0.000109988
-2.09966e-05 -0.000206917 -0.000105685
-0.000137658 0.000174045 -0.000106138
0.000215691 -3.21865e-05 -0.000108778
-0.000189338 -0.000129047 -0.000106642
5.42703e-05 0.000234033 -0.000107131
0.000108349 -0.000207124 -0.000101586
-0.000212792 7.92281e-05 -0.0001028
0.000214433 7.27832e-05 -9.3814e-05
-0.000104336 -0.000169509 -9.70542e-05
-1.20309e-05 0.000173522 -9.20154e-05
9.14175e-05 -0.000113519 -9.28243e-05
-9.47915e-05 5.71778e-05 -9.06422e-05
8.91789e-05 -4.62858e-05 -8.9185e-05
-0.000117561 4.20555e-05 -9.81506e-05
0.000176645 9.22757e-06 -0.000105336
-0.000217399 -0.00013064 -0.000121518
0.000104422 0.000288254 -0.000122475
0.000126886 -0.000318992 -0.000125138
-0.000314025 0.000126303 -0.000115742
0.000226942 0.000150319 -0.000103969
1.92132e-05 -0.000116221 -0.000111737
0.000119711 -0.000142589 -0.000154299
-0.00013509 0.000330139 -0.000106746
8.21811e-05 0.000178274 -0.000155337
0.000105412 -0.000231956 -0.000156093
-0.000234627 -0.000161215 -0.00016031
VECTORS force float
0.013966 0.0107867 0.00174444
-0.0138187 -0.0129816 -0.00109294
0.000294232 0.00213141 -1.76583e-06
-5.38995e-05 -0.000186127 0.000210089
-0.000288539 0.000628026 0.000160953
6.56466e-05 -0.000285575 0.000239591
0.000115521 -0.000252168 0.000172004
-0.000490683 -1.89006e-05 0.000165989
0.000295361 0.000481396 0.00018405
0.000143337 -0.000561805 0.000199375
-0.000432815 0.000270685 0.00020595
0.000408763 3.79622e-05 0.000193012
-0.000238079 -0.00015803 0.000173327
9.72482e-05 0.000167781 0.000169877
-9.76379e-05 -0.000146708 0.000144122
6.78454e-05 0.000185369 0.000144413
6.76204e-06 -0.000219979 0.000160349
-0.000169459 0.000229265 0.000148198
0.000311247 -0.000107078 0.000158026
-0.000338078 -0.000121275 0.000162884
0.000182006 0.000308507 0.00017015
6.61971e-05 -0.000376737 0.000173858
-0.000295136 0.000229119 0.000175177
0.000378021 2.92039e-05 0.000176241
-0.000255174 -0.000278541 0.000172229
-8.1371e-06 0.000366402 0.000169982
0.000244674 -0.00024532 0.000172317
-0.000327803 -8.70717e-07 0.000161371
0.000233836 0.000225008 0.000162325
1.24009e-05 -0.000287221 0.000144528
-0.000197127 0.000202047 0.00015828
0.000268108 4.2548e-06 0.000144632
-0.000158176 -0.000185069 0.000138306
-2.60768e-05 0.000224556 0.00013541
0.000176159 -0.00013571 0.000130616
-0.000208425 -2.80231e-05 0.000131548
9.6957e-05 0.000174813 0.000112332
4.15281e-05 -0.00019076 0.00012343
-0.000168705 8.89518e-05 0.000111595
0.0001698 6.72773e-05 0.000112189
-7.54038e-05 -0.000165239 0.000113326
-8.03954e-05 0.000168024 0.000100315
0.000161427 -6.96038e-05 0.00011675
-0.000159469 -9.81324e-05 9.71605e-05
4.97374e-05 0.000181546 9.93472e-05
9.96883e-05 -0.000160609 9.71518e-05
-0.000169567 5.46136e-05 0.000110474
0.000164955 0.000100592 8.85621e-05
-4.21672e-05 -0.000193929 9.00506e-05
-8.90657e-05 0.00016665 9.96055e-05
0.000201281 -4.62086e-05 9.0985e-05
-0.000178462 -8.99608e-05 9.36983e-05
5.70526e-05 0.000199134 9.17352e-05
9.38692e-05 -0.000185638 8.43981e-05
-0.0001998 6.82815e-05 7.80152e-05
0.000196452 9.61595e-05 8.07506e-05
-8.6929e-05 -0.00018707 8.61471e-05
-7.48175e-05 0.000200612 8.26263e-05
0.000174035 -0.000105712 8.64557e-05
-0.000214614 -7.00986e-05 7.5443e-05
0.000120507 0.000170026 8.37324e-05
2.78214e-05 -0.00020682 8.17333e-05
-0.000176063 0.000130801 7.85666e-05
0.000214083 2.01512e-05 7.69626e-05
-0.000145719 -0.000161778 6.82034e-05
-5.96469e-07 0.000216321 7.26082e-05
0.00014393 -0.000162388 7.71836e-05
-0.000203991 3.74074e-05 7.72567e-05
0.000175561 0.000120515 7.50298e-05
-4.9522e-05 -0.000207963 6.95749e-05
-0.000104295 0.000185758 6.56067e-05
0.000203813 -6.96389e-05 5.11996e-05
-0.000193456 -7.03584e-05 6.43109e-05
8.94859e-05 0.000195056 5.14865e-05
6.42273e-05 -0.000205312 5.31313e-05
-0.000173403 0.000114998 5.62302e-05
0.000204121 2.17212e-05 5.56115e-05
-0.000129519 -0.000163521 4.92921e-05
4.10602e-06 0.000205583 5.54776e-05
0.000144424 -0.000146821 5.39774e-05
-0.000209259 1.2924e-05 4.08704e-05
0.000165012 0.000122719 4.49881e-05
-3.48983e-05 -0.000206897 4.3103e-05
-9.97785e-05 0.000178833 4.3734e-05
0.000196682 -6.15302e-05 3.73429e-05
-0.000190284 -8.54019e-05 3.74734e-05
8.05855e-05 0.000186172 2.81593e-05
5.36576e-05 -0.000194555 2.5278e-05
-0.000177445 0.000102119 2.89003e-05
0.000199867 4.93391e-05 2.66379e-05
-0.000129454 -0.000157768 2.3314e-05
-3.14323e-05 0.000204137 1.58248e-05
0.000158731 -0.000135179 2.01839e-05
-0.00020429 -4.21981e-06 1.57738e-05
0.000155252 0.000134812 1.342e-05
-2.97594e-05 -0.000201182 1.47997e-05
-0.00012263 0.00016578 1.24732e-05
0.000197192 -4.83404e-05 5.919e-06
-0.000180377 -9.81184e-05 5.85391e-06
8.02442e-05 0.000189306 1.52231e-07
7.35324e-05 -0.000189794 -3.20772e-06
-0.00018064 0.000100722 -3.35851e-06
0.000195897 4.99419e-05 -1.09754e-06
-0.000111564 -0.000170092 -8.15851e-06
-1.34348e-05 0.000202686 -7.63053e-06
0.000144151 -0.0001475 -8.19404e-06
-0.000206971 1.39461e-05 -1.50124e-05
0.000161722 0.00013388 -1.44139e-05
-1.98153e-05 -0.000205269 -1.22927e-05
-0.000107742 0.000174232 -1.85027e-05
0.000199725 -6.33005e-05 -2.68482e-05
-0.000180337 -9.82244e-05 -2.38872e-05
7.82081e-05 0.000190683 -3.16645e-05
6.66443e-05 -0.000195746 -3.17924e-05
-0.000180598 9.94664e-05 -2.8645e-05
0.000206075 4.252e-05 -3.23519e-05
-0.00011867 -0.000167598 -3.83928e-05
-1.74758e-05 0.000209641 -3.92644e-05
0.000159086 -0.000135316 -4.54886e-05
-0.000206873 -7.99931e-07 -4.8132e-05
0.000144658 0.000142706 -4.21904e-05
-2.5425e-05 -0.000209106 -4.82001e-05
-0.000125107 0.000164732 -5.35631e-05
0.000203406 -4.30959e-05 -6.15031e-05
-0.000190023 -9.3515e-05 -5.46516e-05
6.8453e-05 0.000198243 -5.73119e-05
7.95594e-05 -0.000194255 -5.75617e-05
-0.000190359 7.97132e-05 -5.97869e-05
0.000197971 6.05118e-05 -6.39672e-05
-0.000118921 -0.000179941 -6.90456e-05
-4.27489e-05 0.000202358 -7.0001e-05
0.000164938 -0.000139436 -5.91013e-05
-0.000212964 -1.3798e-05 -7.17754e-05
0.000154642 0.000151293 -6.67935e-05
-1.5362e-05 -0.000217781 -6.57626e-05
-0.000134485 0.000176612 -6.82558e-05
0.00021843 -3.98708e-05 -6.32751e-05
-0.000176414 -0.000120667 -7.87474e-05
5.49961e-05 0.000213398 -7.43912e-05
0.000104188 -0.000192583 -7.15095e-05
-0.000204016 7.60989e-05 -7.35785e-05
0.000201643 8.29055e-05 -8.244e-05
-9.31823e-05 -0.000197339 -7.37151e-05
-7.21616e-05 0.0001943 -8.91499e-05
0.000183005 -8.12726e-05 -9.42254e-05
-0.000196799 -5.79398e-05 -8.65466e-05
0.000106525 0.000177541 -8.71042e-05
5.21568e-05 -0.000186977 -9.94501e-05
-0.000168636 0.000105116 -9.80918e-05
0.000189606 4.59217e-05 -9.91161e-05
-0.000118669 -0.00016188 -8.97706e-05
-3.5186e-05 0.0001813 -0.000103523
0.000155746 -0.000107083 -9.80879e-05
-0.000188796 -2.74304e-05 -9.64827e-05
0.000106836 0.000149369 -0.000102321
3.94133e-05 -0.000177011 -0.000110404
-0.000146271 0.000118778 -9.56727e-05
0.000185769 2.06231e-05 -9.82853e-05
-0.000107201 -0.000150105 -9.89713e-05
-4.65217e-05 0.000174805 -0.000111545
0.000151504 -0.000114415 -9.63858e-05
-0.000178539 -5.19422e-05 -0.000105854
8.69738e-05 0.000172547 -0.000104341
7.51516e-05 -0.00017824 -0.000118346
-0.000184668 7.65935e-05 -0.00011273
0.000191711 9.10039e-05 -0.000115896
-5.31586e-05 -0.000215167 -0.000130233
-0.000117267 0.00019747 -0.000128116
0.000244158 -4.97935e-05 -0.00012979
-0.000213437 -0.000151113 -0.000138945
3.75046e-05 0.000270125 -0.000150091
0.000178442 -0.000236297 -0.000148626
-0.000307246 3.6494e-05 -0.000153613
0.000248769 0.000223089 -0.000182711
-3.5666e-05 -0.000344389 -0.000175557
-0.000228613 0.000290102 -0.000176387
0.000358938 -5.41898e-05 -0.000180804
-0.000315332 -0.000214335 -0.000177387
9.05851e-05 0.000389195 -0.000178357
0.000180099 -0.000344424 -0.000169339
-0.000353585 0.000131587 -0.000171461
0.000355812 0.000121226 -0.000156828
-0.000172605 -0.000281465 -0.000162302
-2.05002e-05 0.000287606 -0.000153995
0.000151778 -0.000187895 -0.000155247
-0.000157422 9.47857e-05 -0.000151389
0.000148614 -7.68015e-05 -0.000148634
-0.00019596 6.94073e-05 -0.000163375
0.000293652 1.6938e-05 -0.000174938
-0.000360754 -0.000217414 -0.000202199
0.000173288 0.000478245 -0.000203952
0.000209988 -0.000529326 -0.000208498
-0.000520983 0.000209704 -0.000192822
0.000376554 0.000249257 -0.000173394
3.22432e-05 -0.000193492 -0.000186127
0.000198954 -0.000236683 -0.00025687
-0.000223941 0.000545961 -0.000178232
0.000135248 0.000295927 -0.000258436
0.000176098 -0.000384748 -0.000259708
-0.000389881 -0.000265762 -0.00026672
SCALARS mass float 1
LOOKUP_TABLE default
1
1
1
1
1
1
1
1
1
1
1
1
1
1
1
1
1
1
1
1
1
1
1
1
1
1
1
1
1
1
1
1
1
1
1
1
1
1
1
1
1
1
1
1
1
1
1
1
1
1
1
1
1
1
1
1
1
1
1
1
1
1
1
1
1
1
1
1
1
1
1
1
1
1
1
1
1
1
1
1
1
1
1
1
1
1
1
1
1
1
1
1
1
1
1
1
1
1
1
1
1
1
1
1
1
1
1
1
1
1
1
1
1
1
1
1
1
1
1
1
1
1
1
1
1
1
1
1
1
1
1
1
1
1
1
1
1
1
1
1
1
1
1
1
1
1
1
1
1
1
1
1
1
1
1
1
1
1
1
1
1
1
1
1
1
1
1
1
1
1
1
1
1
1
1
1
1
1
1
1
1
1
1
1
1
1
1
1
1
1
1
1
1
1
1
1
1
1
1
1
