# vtk DataFile Version 3.0
Molecular Dynamics Particle Data
ASCII
DATASET POLYDATA
POINTS 200 float
0.00857653 0.00713136 1.00098
-0.112523 -0.102945 0.989272
0.0171253 0.19878 0.98
0.147984 -0.193077 0.970085
-0.27612 0.0492494 0.960063
0.263025 0.167883 0.950096
-0.0889572 -0.329087 0.940072
-0.169198 0.325996 0.930065
0.36812 -0.133804 0.920074
-0.382939 -0.158228 0.910082
0.184824 0.39511 0.900083
0.136166 -0.434985 0.890078
-0.411096 0.237935 0.880069
0.482039 0.106068 0.870067
-0.293039 -0.417059 0.860058
-0.0679725 0.522075 0.850058
0.415 -0.350089 0.840063
-0.557067 -0.0229068 0.830059
0.406126 0.403957 0.820062
-0.0271374 -0.586049 0.810064
-0.383927 0.461125 0.800067
0.608027 -0.0821529 0.790069
-0.514118 -0.356907 0.78007
0.140153 0.622 0.77007
0.322897 -0.564113 0.760068
-0.63 0.201149 0.750067
0.611098 0.281901 0.740068
-0.264133 -0.63 0.730063
-0.234905 0.65309 0.720064
0.623 -0.328116 0.710058
-0.69108 -0.181918 0.700062
0.391109 0.609 0.690058
0.123936 -0.723075 0.680056
-0.587 0.455091 0.670055
0.74907 0.061945 0.660053
-0.516084 -0.558 0.650053
0.0040392 0.76807 0.640044
0.522011 -0.575077 0.63005
-0.781066 0.072036 0.620044
0.631067 0.479027 0.610044
-0.14303 -0.787064 0.600045
-0.430032 0.683066 0.590036
0.786063 -0.215028 0.580046
-0.731063 -0.37504 0.570035
0.288018 0.777073 0.560036
0.31504 -0.774063 0.550035
-0.761067 0.360021 0.540043
0.810064 0.250041 0.530034
-0.432016 -0.737079 0.520034
-0.181036 0.841065 0.510036
0.706082 -0.502015 0.500034
-0.865071 -0.108036 0.490038
0.569022 0.668081 0.480037
0.0320381 -0.882075 0.470033
-0.623081 0.632028 0.460031
0.89208 -0.045961 0.450032
-0.692033 -0.572076 0.440034
0.12497 0.894081 0.430032
0.515069 -0.74704 0.420034
-0.889086 0.204972 0.41003
0.797048 0.452069 0.400033
-0.283989 -0.876084 0.390032
-0.384071 0.842053 0.380031
0.855086 -0.362995 0.370031
-0.879058 -0.311066 0.360028
0.44 0.827087 0.350029
0.235058 -0.911063 0.340031
-0.792083 0.514006 0.330031
0.93507 0.156049 0.32003
-0.586018 -0.749084 0.310028
-0.0740422 0.951075 0.300027
0.699083 -0.653028 0.290019
-0.960078 0.00897151 0.280026
0.716034 0.643079 0.270019
-0.093974 -0.961083 0.26002
-0.582069 0.774046 0.250022
0.954083 -0.177992 0.240022
-0.826052 -0.514064 0.23002
0.262 0.940083 0.220022
0.442058 -0.872059 0.210022
-0.917085 0.345 0.200016
0.911064 0.366049 0.190018
-0.426014 -0.887084 0.180017
-0.28604 0.943072 0.170017
0.84908 -0.503025 0.160015
-0.968077 -0.203035 0.150015
0.577032 0.804075 0.140011
0.118022 -0.984079 0.130009
-0.753071 0.647038 0.120011
0.993081 0.03102 0.110011
-0.712052 -0.695062 0.100009
0.0559873 0.994083 0.0900064
0.631063 -0.772055 0.0800079
-0.987083 0.143 0.0700064
0.825062 0.562055 0.0600054
-0.229012 -0.972081 0.0500059
-0.488049 0.872064 0.0400051
0.94908 -0.313018 0.0300024
-0.912072 -0.41004 0.0200024
0.395032 0.919077 0.01
0.329029 -0.944077 -1.31126e-06
-0.881072 0.474041 -0.0100014
0.969079 0.24502 -0.0200001
-0.549044 -0.835067 -0.0300033
-0.160005 0.986082 -0.0400031
0.784058 -0.619059 -0.0500033
-0.996084 -0.0729945 -0.060006
0.685063 0.726054 -0.0700057
-0.015008 -0.997083 -0.0800044
-0.662041 0.744069 -0.0900074
0.990081 -0.101026 -0.100011
-0.798072 -0.593036 -0.11001
0.187032 0.975077 -0.120013
0.520027 -0.844079 -0.130013
-0.952072 0.27104 -0.140011
0.884083 0.443016 -0.150013
-0.352047 -0.922066 -0.160015
-0.363001 0.916085 -0.170016
0.885063 -0.430055 -0.180018
-0.941084 -0.28 -0.19002
0.504058 0.840057 -0.200017
0.195991 -0.958085 -0.21002
-0.790051 0.573064 -0.220022
0.967082 0.110983 -0.230025
-0.636077 -0.733035 -0.240022
-0.0259723 0.96808 -0.250023
0.671031 -0.694079 -0.260023
-0.961077 0.0590323 -0.270024
0.74608 0.604024 -0.280026
-0.141048 -0.947072 -0.290028
-0.533012 0.791082 -0.300028
0.924064 -0.222056 -0.310024
-0.829086 -0.459 -0.320029
0.300062 0.89506 -0.330027
0.382 -0.859088 -0.340027
-0.859054 0.374071 -0.350028
0.882088 0.302984 -0.360026
-0.444071 -0.816048 -0.370031
-0.222978 0.898086 -0.38003
0.767039 -0.509078 -0.390029
-0.905083 -0.141969 -0.400029
0.569082 0.713032 -0.410032
0.0619622 -0.90508 -0.42003
-0.654029 0.623079 -0.430036
0.898074 -0.0180329 -0.440038
-0.67008 -0.590023 -0.450034
0.0950432 0.883071 -0.460035
0.52302 -0.711075 -0.47004
-0.861066 0.170042 -0.48004
0.745077 0.453017 -0.49004
-0.241048 -0.832063 -0.500034
-0.381014 0.771073 -0.510039
0.796062 -0.309043 -0.520036
-0.790076 -0.308011 -0.530035
0.372043 0.75506 -0.540038
0.234016 -0.802071 -0.550043
-0.709059 0.429048 -0.560035
0.806075 0.161008 -0.570036
-0.481043 -0.65706 -0.580036
-0.0880187 0.80307 -0.590043
0.60206 -0.527045 -0.600035
-0.792072 -0.0170209 -0.61004
0.567033 0.542068 -0.620039
-0.0509696 -0.775071 -0.630047
-0.481074 0.599031 -0.640044
0.751078 -0.115963 -0.650046
-0.62502 -0.417087 -0.660053
0.176953 0.72108 -0.670052
0.352099 -0.643018 -0.680053
-0.685086 0.232939 -0.690056
0.654006 0.287109 -0.70006
-0.283928 -0.644094 -0.71006
-0.222124 0.657005 -0.720061
0.5991 -0.329909 -0.730074
-0.654003 -0.15914 -0.74007
0.368907 0.549117 -0.750071
0.0981456 -0.643021 -0.760073
-0.497128 0.399913 -0.770071
0.625034 0.039158 -0.780071
-0.424927 -0.44214 -0.790067
0.0148564 0.600054 -0.800068
0.385145 -0.441951 -0.810062
-0.569069 0.0638856 -0.820063
0.450995 0.328117 -0.830061
-0.107938 -0.532076 -0.840061
-0.272064 0.451039 -0.85006
0.489059 -0.144031 -0.860059
-0.443079 -0.216972 -0.870064
0.174119 0.442 -0.88007
0.163853 -0.426088 -0.890082
-0.38993 0.194195 -0.900083
0.399085 0.113785 -0.910084
-0.205212 -0.333915 -0.920078
-0.0698469 0.361101 -0.930069
0.274013 -0.203078 -0.940075
-0.310919 -0.0330962 -0.950104
0.185909 0.210223 -0.960071
0.00405543 -0.24288 -0.970105
-0.136929 0.143844 -0.980105
0.140842 -0.0101088 -0.990108
VERTICES 200 400
1 0
1 1
1 2
1 3
1 4
1 5
1 6
1 7
1 8
1 9
1 10
1 11
1 12
1 13
1 14
1 15
1 16
1 17
1 18
1 19
1 20
1 21
1 22
1 23
1 24
1 25
1 26
1 27
1 28
1 29
1 30
1 31
1 32
1 33
1 34
1 35
1 36
1 37
1 38
1 39
1 40
1 41
1 42
1 43
1 44
1 45
1 46
1 47
1 48
1 49
1 50
1 51
1 52
1 53
1 54
1 55
1 56
1 57
1 58
1 59
1 60
1 61
1 62
1 63
1 64
1 65
1 66
1 67
1 68
1 69
1 70
1 71
1 72
1 73
1 74
1 75
1 76
1 77
1 78
1 79
1 80
1 81
1 82
1 83
1 84
1 85
1 86
1 87
1 88
1 89
1 90
1 91
1 92
1 93
1 94
1 95
1 96
1 97
1 98
1 99
1 100
1 101
1 102
1 103
1 104
1 105
1 106
1 107
1 108
1 109
1 110
1 111
1 112
1 113
1 114
1 115
1 116
1 117
1 118
1 119
1 120
1 121
1 122
1 123
1 124
1 125
1 126
1 127
1 128
1 129
1 130
1 131
1 132
1 133
1 134
1 135
1 136
1 137
1 138
1 139
1 140
1 141
1 142
1 143
1 144
1 145
1 146
1 147
1 148
1 149
1 150
1 151
1 152
1 153
1 154
1 155
1 156
1 157
1 158
1 159
1 160
1 161
1 162
1 163
1 164
1 165
1 166
1 167
1 168
1 169
1 170
1 171
1 172
1 173
1 174
1 175
1 176
1 177
1 178
1 179
1 180
1 181
1 182
1 183
1 184
1 185
1 186
1 187
1 188
1 189
1 190
1 191
1 192
1 193
1 194
1 195
1 196
1 197
1 198
1 199
POINT_DATA 200
VECTORS velocity float
0.0159453 0.012882 0.00188366
-0.0158179 -0.0147857 -0.00131171
0.000269433 0.00184035 8.47515e-06
-4.33668e-05 -0.000169306 0.0001888
-0.000262635 0.000560195 0.000144704
5.76881e-05 -0.000258219 0.000216049
0.000100551 -0.000212643 0.000158148
-0.000441342 -1.73735e-05 0.000149572
0.000266133 0.000433914 0.000165702
0.000131924 -0.000506163 0.000180334
-0.000390511 0.000243699 0.000185561
0.000368344 3.45074e-05 0.000173861
-0.000214127 -0.000142808 0.000156205
8.73144e-05 0.000151168 0.00015298
-8.77747e-05 -0.000131928 0.000129783
6.11302e-05 0.000167073 0.000129872
6.20177e-06 -0.000198375 0.000144168
-0.000152963 0.000206682 0.000133178
0.000280697 -9.63772e-05 0.000142035
-0.000304693 -0.000109419 0.000146468
0.000163961 0.000277963 0.000153091
5.95768e-05 -0.000339377 0.000156496
-0.000265711 0.000206413 0.000157723
0.000340416 2.61189e-05 0.000158753
-0.00022987 -0.000250701 0.000155107
-7.11923e-06 0.000329904 0.000153141
0.000220131 -0.000221013 0.000155258
-0.000295105 -5.96686e-07 0.000145386
0.000210657 0.000202449 0.000146237
1.10762e-05 -0.000258551 0.000130156
-0.000177377 0.000181984 0.000142557
0.000241362 3.77415e-06 0.000130226
-0.0001424 -0.00016658 0.000124506
-2.34817e-05 0.000202135 0.000121886
0.000158599 -0.000122141 0.000117542
-0.00018764 -2.52222e-05 0.000118408
8.71976e-05 0.000157421 0.000101036
3.73435e-05 -0.000171748 0.00011112
-0.000151914 8.00215e-05 0.00010039
0.000152854 6.06119e-05 0.000100936
-6.7857e-05 -0.000148775 0.000101969
-7.2415e-05 0.000151265 9.02404e-05
0.000145314 -6.26707e-05 0.000105072
-0.000143559 -8.84202e-05 8.73792e-05
4.47575e-05 0.000163451 8.93664e-05
8.98011e-05 -0.000144577 8.73917e-05
-0.000152635 4.91705e-05 9.94169e-05
0.000148494 9.06159e-05 7.96575e-05
-3.79127e-05 -0.000174639 8.09561e-05
-8.01861e-05 0.000150003 8.96464e-05
0.000181316 -4.14998e-05 8.18067e-05
-0.000160642 -8.10157e-05 8.43059e-05
5.12994e-05 0.000179325 8.25332e-05
8.45557e-05 -0.000167112 7.59197e-05
-0.000179909 6.14285e-05 7.01761e-05
0.000176855 8.66323e-05 7.2631e-05
-7.82329e-05 -0.00016837 7.75478e-05
-6.73943e-05 0.000180592 7.43431e-05
0.000156638 -9.51456e-05 7.78108e-05
-0.000193218 -6.31727e-05 6.78515e-05
0.000108462 0.000153039 7.53695e-05
2.50336e-05 -0.000186148 7.35679e-05
-0.000158522 0.000117722 7.06987e-05
0.00019267 1.81277e-05 6.92835e-05
-0.000131153 -0.000145662 6.13875e-05
-5.54424e-07 0.000194707 6.53637e-05
0.000129565 -0.000146156 6.94788e-05
-0.000183613 3.36504e-05 6.95615e-05
0.000158013 0.000108482 6.7531e-05
-4.45066e-05 -0.000187251 6.2635e-05
-9.38786e-05 0.000167192 5.90555e-05
0.000183457 -6.26751e-05 4.60711e-05
-0.000174112 -6.33124e-05 5.79076e-05
8.05325e-05 0.00017557 4.63279e-05
5.78416e-05 -0.000184795 4.78313e-05
-0.000156063 0.000103498 5.0629e-05
0.00018372 1.95576e-05 5.00713e-05
-0.000116569 -0.000147176 4.43845e-05
3.7073e-06 0.000185028 4.99582e-05
0.00013001 -0.000132137 4.86244e-05
-0.000188344 1.16209e-05 3.6807e-05
0.000148522 0.000110444 4.05145e-05
-3.14153e-05 -0.000186198 3.88464e-05
-8.98095e-05 0.000160955 3.93869e-05
0.000177041 -5.53495e-05 3.36219e-05
-0.000171268 -7.68651e-05 3.37297e-05
7.25307e-05 0.000167564 2.53591e-05
4.82916e-05 -0.00017511 2.27547e-05
-0.000159705 9.19218e-05 2.60005e-05
0.000179892 4.4425e-05 2.39934e-05
-0.000116539 -0.000141991 2.09582e-05
-2.83207e-05 0.000183739 1.42382e-05
0.000142873 -0.000121669 1.81791e-05
-0.000183875 -3.80643e-06 1.42087e-05
0.000139737 0.000121357 1.20795e-05
-2.67929e-05 -0.000181076 1.33212e-05
-0.000110386 0.000149215 1.12409e-05
0.000177477 -4.35202e-05 5.34137e-06
-0.00016235 -8.83199e-05 5.2818e-06
7.22151e-05 0.000170389 1.27799e-07
6.61788e-05 -0.000170829 -2.90399e-06
-0.000162592 9.06513e-05 -3.03438e-06
0.000176318 4.49559e-05 -9.81544e-07
-0.000100419 -0.000153091 -7.35347e-06
-1.2074e-05 0.000182434 -6.87237e-06
0.000129754 -0.000132767 -7.38035e-06
-0.000186289 1.25659e-05 -1.35107e-05
0.000145569 0.000120496 -1.29594e-05
-1.7826e-05 -0.000184755 -1.10668e-05
-9.69792e-05 0.000156816 -1.66255e-05
0.000179765 -5.69866e-05 -2.41734e-05
-0.000162302 -8.84187e-05 -2.14949e-05
7.04028e-05 0.000171624 -2.85007e-05
5.99619e-05 -0.000176197 -2.86322e-05
-0.000162545 8.95432e-05 -2.57899e-05
0.000185472 3.82694e-05 -2.91308e-05
-0.00010681 -0.000150852 -3.45738e-05
-1.57201e-05 0.000188682 -3.53764e-05
0.000143177 -0.000121806 -4.09711e-05
-0.000186192 -7.15177e-07 -4.33588e-05
0.000130184 0.000128458 -3.80041e-05
-2.29052e-05 -0.000188208 -4.33981e-05
-0.000112612 0.000148252 -4.82299e-05
0.000183071 -3.87812e-05 -5.53851e-05
-0.000171043 -8.41596e-05 -4.91781e-05
6.16045e-05 0.000178421 -5.16072e-05
7.16164e-05 -0.000174824 -5.18143e-05
-0.000171326 7.17264e-05 -5.38359e-05
0.000178206 5.44382e-05 -5.7598e-05
-0.000107038 -0.000161952 -6.21586e-05
-3.84388e-05 0.000182171 -6.30243e-05
0.000148454 -0.000125528 -5.31942e-05
-0.000191688 -1.24031e-05 -6.46151e-05
0.00013923 0.000136169 -6.01119e-05
-1.38236e-05 -0.000196004 -5.92035e-05
-0.000121039 0.000159007 -6.14179e-05
0.000196631 -3.59347e-05 -5.69391e-05
-0.000158799 -0.000108607 -7.08721e-05
4.95503e-05 0.000192105 -6.69229e-05
9.37657e-05 -0.000173384 -6.43157e-05
-0.000183649 6.85403e-05 -6.62004e-05
0.000181526 7.45934e-05 -7.41882e-05
-8.39344e-05 -0.000177651 -6.63039e-05
-6.49312e-05 0.000174894 -8.02497e-05
0.000164715 -7.31692e-05 -8.48148e-05
-0.000177184 -5.21117e-05 -7.78896e-05
9.59279e-05 0.00015981 -7.83747e-05
4.69005e-05 -0.000168339 -8.95128e-05
-0.000151789 9.46419e-05 -8.82815e-05
0.000170671 4.13333e-05 -8.91933e-05
-0.000106862 -0.000145711 -8.07764e-05
-3.1669e-05 0.000163194 -9.31634e-05
0.000140207 -9.64e-05 -8.82703e-05
-0.000170018 -2.46271e-05 -8.67605e-05
9.61942e-05 0.000134462 -9.20746e-05
3.5444e-05 -0.000159389 -9.93026e-05
-0.000131671 0.000106976 -8.60666e-05
0.000167282 1.84967e-05 -8.83786e-05
-9.65489e-05 -0.000135108 -8.90446e-05
-4.18339e-05 0.000157395 -0.000100339
0.000136344 -0.000103139 -8.66626e-05
-0.000160783 -4.66694e-05 -9.51879e-05
7.84041e-05 0.000155306 -9.38226e-05
6.7559e-05 -0.000160505 -0.000106441
-0.000166215 6.90333e-05 -0.000101396
0.000172613 8.18662e-05 -0.000104259
-4.77955e-05 -0.000193736 -0.000117269
-0.000105528 0.000177767 -0.000115292
0.000219854 -4.47149e-05 -0.000116907
-0.000192106 -0.000136069 -0.000125097
3.36353e-05 0.000243202 -0.000135212
0.000160723 -0.000212649 -0.000133866
-0.000276634 3.26801e-05 -0.000138405
0.000223807 0.000201054 -0.000164654
-3.18704e-05 -0.000310106 -0.0001582
-0.000206025 0.000261083 -0.000158918
0.000323228 -4.85613e-05 -0.000162918
-0.000283869 -0.000193144 -0.000159764
8.14833e-05 0.000350558 -0.00016058
0.000162225 -0.000310244 -0.000152372
-0.000318589 0.000118582 -0.000154275
0.000320777 0.000109094 -0.000140955
-0.000155787 -0.000253681 -0.000145887
-1.82894e-05 0.0002594 -0.000138375
0.000136823 -0.000169569 -0.000139529
-0.000141887 8.5489e-05 -0.000136137
0.000133786 -6.92402e-05 -0.000133767
-0.000176361 6.26986e-05 -0.000147107
0.00026454 1.47175e-05 -0.000157655
-0.000325225 -0.000195786 -0.000182085
0.000156217 0.000431159 -0.000183613
0.000189489 -0.000477191 -0.000187672
-0.000469697 0.000189022 -0.00017357
0.000339479 0.000224759 -0.000156016
2.89184e-05 -0.000174215 -0.000167553
0.00017925 -0.000213341 -0.000231285
-0.000201958 0.000492811 -0.000160299
0.000122307 0.000266736 -0.000232749
0.000158349 -0.000346898 -0.00023389
-0.000351284 -0.000240184 -0.000240206
VECTORS force float
0.00767033 0.00462627 0.00118884
-0.00749071 -0.00714825 -0.00046479
0.000255464 0.00249666 -5.22022e-05
-7.49327e-05 -0.000178014 0.000211158
-0.000270982 0.000644893 0.000162481
7.2826e-05 -0.00027922 0.000237349
0.000135053 -0.000322934 0.000155197
-0.000492692 -1.66818e-05 0.000164827
0.000293566 0.000477821 0.000183746
0.000128155 -0.000558504 0.000194643
-0.000427353 0.000270263 0.000204764
0.000406325 3.61386e-05 0.000192208
-0.000238903 -0.00015483 0.000172145
9.84326e-05 0.000166836 0.000169312
-9.83287e-05 -0.000147336 0.000143717
6.74801e-05 0.000184169 0.000144938
6.10171e-06 -0.000217843 0.00016119
-0.000167187 0.000227524 0.00014925
0.000308229 -0.000107123 0.000159063
-0.000335859 -0.000119841 0.000163563
0.000181197 0.00030682 0.000170408
6.60829e-05 -0.000374991 0.000173842
-0.000294612 0.000227972 0.000174801
0.000376824 3.01159e-05 0.00017548
-0.00025377 -0.000278494 0.000171486
-9.29378e-06 0.000365526 0.000169092
0.000245024 -0.000243983 0.000171383
-0.000327279 -1.95321e-06 0.000160509
0.000232627 0.000225354 0.000161459
1.3092e-05 -0.0002869 0.000143915
-0.000197359 0.000201167 0.00015763
0.000267717 4.84063e-06 0.000144133
-0.000157774 -0.000185062 0.000138026
-2.62015e-05 0.000224326 0.000135222
0.000175955 -0.000135546 0.00013057
-0.000208116 -2.80938e-05 0.000131436
9.72221e-05 0.00017429 0.00011268
4.11913e-05 -0.000190497 0.000123656
-0.000168158 8.91723e-05 0.000111949
0.000169577 6.66664e-05 0.000112579
-7.55262e-05 -0.000164752 0.000113625
-7.97095e-05 0.000167744 0.000100795
0.000161039 -6.96434e-05 0.000116958
-0.00015921 -9.73748e-05 9.7681e-05
4.99971e-05 0.000180859 9.98354e-05
9.90679e-05 -0.000160348 9.76014e-05
-0.000169168 5.46902e-05 0.000110696
0.000164687 0.000100067 8.89431e-05
-4.24261e-05 -0.000193293 9.04526e-05
-8.88046e-05 0.000166453 9.9771e-05
0.000200825 -4.63648e-05 9.12396e-05
-0.000178291 -8.97195e-05 9.38305e-05
5.71313e-05 0.000198864 9.18569e-05
9.351e-05 -0.000185447 8.45622e-05
-0.000199508 6.83722e-05 7.81457e-05
0.000196227 9.57188e-05 8.09313e-05
-8.69875e-05 -0.00018685 8.6152e-05
-7.46004e-05 0.000200508 8.26233e-05
0.000173948 -0.000105711 8.63512e-05
-0.000214412 -6.97293e-05 7.55243e-05
0.000120523 0.000169947 8.36365e-05
2.77132e-05 -0.000206753 8.16175e-05
-0.000175831 0.000130876 7.85142e-05
0.000213962 1.99826e-05 7.68706e-05
-0.000145755 -0.000161546 6.81603e-05
-4.10316e-07 0.00021618 7.2509e-05
0.000143749 -0.000162433 7.70028e-05
-0.000203965 3.74238e-05 7.70931e-05
0.000175584 0.00012044 7.48377e-05
-4.95485e-05 -0.000207953 6.94164e-05
-0.000104167 0.000185754 6.54698e-05
0.000203642 -6.9724e-05 5.12056e-05
-0.000193441 -7.03603e-05 6.41445e-05
8.95434e-05 0.000194874 5.14465e-05
6.41074e-05 -0.000205247 5.30837e-05
-0.000173365 0.000114975 5.61182e-05
0.000204083 2.17542e-05 5.55061e-05
-0.000129495 -0.000163462 4.92269e-05
4.06782e-06 0.000205551 5.53234e-05
0.000144399 -0.000146788 5.38575e-05
-0.000209141 1.30136e-05 4.08324e-05
0.00016496 0.000122666 4.49004e-05
-3.4941e-05 -0.00020679 4.30839e-05
-9.97888e-05 0.000178763 4.36292e-05
0.000196679 -6.14229e-05 3.72443e-05
-0.000190227 -8.53331e-05 3.73768e-05
8.05279e-05 0.000186125 2.8126e-05
5.37472e-05 -0.000194462 2.52911e-05
-0.000177325 0.000102126 2.88468e-05
0.000199785 4.92456e-05 2.65952e-05
-0.000129379 -0.000157749 2.32441e-05
-3.13099e-05 0.000204043 1.58247e-05
0.000158583 -0.000135209 2.01339e-05
-0.000204218 -4.19863e-06 1.5734e-05
0.00015524 0.00013471 1.33754e-05
-2.97779e-05 -0.000201098 1.47385e-05
-0.000122452 0.00016579 1.24206e-05
0.000197062 -4.84424e-05 5.92264e-06
-0.000180347 -9.79993e-05 5.82681e-06
8.01882e-05 0.000189245 1.7543e-07
7.34627e-05 -0.000189727 -3.1923e-06
-0.000180588 0.000100676 -3.33693e-06
0.000195832 4.98772e-05 -1.12721e-06
-0.000111587 -0.000169968 -8.15593e-06
-1.34368e-05 0.000202617 -7.61976e-06
0.000144152 -0.000147387 -8.22204e-06
-0.00020689 1.38601e-05 -1.49653e-05
0.000161655 0.000133842 -1.44129e-05
-1.98693e-05 -0.000205184 -1.23754e-05
-0.000107789 0.000174072 -1.84845e-05
0.00019967 -6.31546e-05 -2.68031e-05
-0.000180255 -9.8195e-05 -2.3882e-05
7.81439e-05 0.000190622 -3.15809e-05
6.66501e-05 -0.000195672 -3.17165e-05
-0.000180537 9.93674e-05 -2.86256e-05
0.000205933 4.26162e-05 -3.23168e-05
-0.000118567 -0.000167563 -3.83158e-05
-1.76232e-05 0.000209493 -3.91953e-05
0.000159032 -0.000135314 -4.53537e-05
-0.000206816 -8.18931e-07 -4.79916e-05
0.000144619 0.000142662 -4.21545e-05
-2.53715e-05 -0.000209034 -4.81173e-05
-0.000125048 0.000164749 -5.34129e-05
0.000203385 -4.31009e-05 -6.12973e-05
-0.000189868 -9.35891e-05 -5.44887e-05
6.83916e-05 0.0001982 -5.71928e-05
7.95908e-05 -0.000194177 -5.74224e-05
-0.000190323 7.97292e-05 -5.96674e-05
0.000197993 6.04699e-05 -6.37921e-05
-0.000118795 -0.000179961 -6.88284e-05
-4.27445e-05 0.000202352 -6.98313e-05
0.000164929 -0.000139197 -5.90511e-05
-0.000212834 -1.39714e-05 -7.16421e-05
0.000154493 0.000151318 -6.66917e-05
-1.5201e-05 -0.000217622 -6.57374e-05
-0.000134567 0.000176318 -6.82101e-05
0.000218258 -3.96017e-05 -6.32729e-05
-0.000176305 -0.000120729 -7.86061e-05
5.47761e-05 0.000213273 -7.43866e-05
0.000104287 -0.000192325 -7.14563e-05
-0.000203901 7.58413e-05 -7.35883e-05
0.000201325 8.3047e-05 -8.24404e-05
-9.28471e-05 -0.000197187 -7.37866e-05
-7.22491e-05 0.000194132 -8.91181e-05
0.000182984 -8.12349e-05 -9.41234e-05
-0.000196665 -5.79657e-05 -8.65846e-05
0.000106233 0.000177413 -8.7194e-05
5.2122e-05 -0.000186963 -9.93826e-05
-0.000168541 0.000104955 -9.81043e-05
0.000189424 4.5952e-05 -9.91557e-05
-0.000118256 -0.000161697 -9.00331e-05
-3.52285e-05 0.000181052 -0.000103629
0.000155563 -0.000106763 -9.83176e-05
-0.000188386 -2.75332e-05 -9.67648e-05
0.000106436 0.000149179 -0.000102599
3.94674e-05 -0.000176697 -0.000110545
-0.000146074 0.000118096 -9.61557e-05
0.000185078 2.10804e-05 -9.88307e-05
-0.000106483 -0.000149902 -9.94803e-05
-4.67795e-05 0.000174284 -0.00011191
0.00015137 -0.000113385 -9.7095e-05
-0.000177902 -5.23996e-05 -0.000106359
8.62427e-05 0.000172404 -0.000104806
7.53006e-05 -0.000177823 -0.000118565
-0.00018455 7.60192e-05 -0.000113078
0.000191266 9.12082e-05 -0.000116163
-5.29464e-05 -0.000214997 -0.00013032
-0.000117145 0.000197264 -0.000128065
0.000243951 -4.97371e-05 -0.000129761
-0.000213434 -0.000150548 -0.000138549
3.81891e-05 0.000269648 -0.000149459
0.000177513 -0.000236473 -0.000147929
-0.00030667 3.74285e-05 -0.000152787
0.000249097 0.000221579 -0.000181609
-3.68922e-05 -0.000343494 -0.000174502
-0.000227087 0.000290173 -0.000175428
0.000357934 -5.50368e-05 -0.000180075
-0.000314869 -0.000212935 -0.000176736
9.08625e-05 0.000387556 -0.000177923
0.000179055 -0.000342949 -0.000169265
-0.000351607 0.000130677 -0.000171744
0.000352912 0.000120874 -0.000157522
-0.000170215 -0.00027956 -0.00016331
-2.1221e-05 0.000284667 -0.0001551
0.000150822 -0.000185554 -0.000156205
-0.000156435 9.39081e-05 -0.000151943
0.00014872 -7.61961e-05 -0.000148588
-0.000196028 6.81514e-05 -0.000162966
0.000292202 1.98664e-05 -0.00017377
-0.000357868 -0.000216861 -0.00020154
0.00017191 0.000474187 -0.000203622
0.000207196 -0.000525036 -0.000208397
-0.000516538 0.000208276 -0.000192677
0.000373467 0.000246869 -0.000173594
3.25183e-05 -0.000193108 -0.000185964
0.00019789 -0.000234894 -0.000256329
-0.000221702 0.000538008 -0.000178833
0.000132049 0.000293679 -0.000257588
0.000176866 -0.000381308 -0.000258889
-0.000387696 -0.000260343 -0.000265862
SCALARS mass float 1
LOOKUP_TABLE default
1
1
1
1
1
1
1
1
1
1
1
1
1
1
1
1
1
1
1
1
1
1
1
1
1
1
1
1
1
1
1
1
1
1
1
1
1
1
1
1
1
1
1
1
1
1
1
1
1
1
1
1
1
1
1
1
1
1
1
1
1
1
1
1
1
1
1
1
1
1
1
1
1
1
1
1
1
1
1
1
1
1
1
1
1
1
1
1
1
1
1
1
1
1
1
1
1
1
1
1
1
1
1
1
1
1
1
1
1
1
1
1
1
1
1
1
1
1
1
1
1
1
1
1
1
1
1
1
1
1
1
1
1
1
1
1
1
1
1
1
1
1
1
1
1
1
1
1
1
1
1
1
1
1
1
1
1
1
1
1
1
1
1
1
1
1
1
1
1
1
1
1
1
1
1
1
1
1
1
1
1
1
1
1
1
1
1
1
1
1
1
1
1
1
1
1
1
1
1
1
