# vtk DataFile Version 3.0
Molecular Dynamics Particle Data
ASCII
DATASET POLYDATA
POINTS 200 float
0.000514234 0.000437746 1.00006
-0.104512 -0.0954758 0.989955
0.0170064 0.198036 0.98
0.148 -0.193004 0.970003
-0.276006 0.0490122 0.960001
0.263 0.167994 0.950005
-0.088998 -0.329004 0.940002
-0.16901 0.326 0.930001
0.368006 -0.13399 0.920002
-0.382997 -0.158011 0.910003
0.184991 0.395005 0.900003
0.136008 -0.435 0.890003
-0.411004 0.237997 0.880002
0.482001 0.106003 0.870001
-0.293001 -0.417003 0.86
-0.0679987 0.522002 0.85
0.415 -0.350004 0.840001
-0.557002 -0.0229954 0.83
0.406006 0.403998 0.820001
-0.0270068 -0.586 0.810001
-0.383996 0.461006 0.800002
0.608 -0.0820076 0.790002
-0.514006 -0.356996 0.780002
0.140008 0.622 0.770002
0.322995 -0.564006 0.760002
-0.63 0.201007 0.750001
0.611005 0.281995 0.740002
-0.264007 -0.63 0.730001
-0.234995 0.653004 0.720001
0.623 -0.328006 0.71
-0.691003 -0.181996 0.700001
0.391005 0.609 0.69
0.123997 -0.723002 0.68
-0.587 0.455004 0.67
0.749002 0.0619973 0.66
-0.516003 -0.558 0.65
0.00400193 0.768002 0.64
0.522 -0.575003 0.63
-0.781001 0.0720017 0.62
0.631001 0.479 0.61
-0.143002 -0.787001 0.6
-0.43 0.683001 0.59
0.786001 -0.215001 0.58
-0.731001 -0.375001 0.57
0.288 0.777002 0.56
0.315002 -0.774001 0.55
-0.761001 0.36 0.54
0.810001 0.250002 0.53
-0.432 -0.737003 0.52
-0.181002 0.841001 0.51
0.706003 -0.502 0.5
-0.865002 -0.108002 0.490001
0.569 0.668003 0.480001
0.0320019 -0.882002 0.470001
-0.623003 0.632 0.46
0.892003 -0.0459981 0.45
-0.692 -0.572002 0.440001
0.124999 0.894003 0.430001
0.515002 -0.747 0.420001
-0.889004 0.204999 0.41
0.797 0.452003 0.400001
-0.284 -0.876003 0.390001
-0.384003 0.842 0.38
0.855004 -0.363 0.37
-0.879 -0.311003 0.36
0.44 0.827004 0.35
0.235003 -0.911001 0.34
-0.792003 0.514 0.33
0.935002 0.156002 0.32
-0.586 -0.749003 0.31
-0.0740021 0.951002 0.3
0.699003 -0.653 0.29
-0.960003 0.00899859 0.28
0.716 0.643003 0.27
-0.0939987 -0.961003 0.26
-0.582002 0.774 0.25
0.954003 -0.178 0.240001
-0.826 -0.514001 0.230001
0.262 0.940003 0.220001
0.442003 -0.872 0.210001
-0.917003 0.345 0.2
0.911001 0.366002 0.190001
-0.426 -0.887003 0.18
-0.286002 0.943002 0.17
0.849003 -0.503 0.16
-0.968003 -0.203002 0.15
0.577 0.804002 0.14
0.118001 -0.984003 0.13
-0.753002 0.647 0.120001
0.993003 0.031001 0.11
-0.712 -0.695001 0.1
0.0559994 0.994003 0.09
0.631001 -0.772 0.0800001
-0.987003 0.143 0.07
0.825 0.562 0.0600002
-0.229 -0.972003 0.0500003
-0.488002 0.872001 0.0400002
0.949003 -0.313 0.0300001
-0.912002 -0.410001 0.0200001
0.395 0.919003 0.01
0.329 -0.944003 -6.52253e-08
-0.881002 0.474002 -0.0100001
0.969003 0.245001 -0.02
-0.549 -0.835001 -0.0300002
-0.16 0.986003 -0.04
0.784 -0.619 -0.05
-0.996003 -0.073 -0.0600003
0.685001 0.726 -0.07
-0.0150004 -0.997003 -0.08
-0.662 0.744002 -0.09
0.990003 -0.101001 -0.1
-0.798002 -0.593 -0.11
0.187002 0.975003 -0.120001
0.52 -0.844003 -0.13
-0.952002 0.271001 -0.14
0.884003 0.443 -0.15
-0.352002 -0.922001 -0.16
-0.363 0.916003 -0.17
0.885001 -0.430003 -0.180001
-0.941003 -0.28 -0.190001
0.504 0.84 -0.2
0.196 -0.958003 -0.210001
-0.79 0.573001 -0.220001
0.967003 0.110999 -0.230001
-0.636003 -0.733 -0.240001
-0.0259986 0.968003 -0.25
0.671 -0.694003 -0.26
-0.961003 0.0590016 -0.27
0.746003 0.604 -0.28
-0.141002 -0.947002 -0.29
-0.533 0.791003 -0.3
0.924001 -0.222003 -0.31
-0.829004 -0.459 -0.32
0.300003 0.895 -0.33
0.382 -0.859004 -0.34
-0.859 0.374003 -0.35
0.882004 0.303 -0.36
-0.444003 -0.816 -0.37
-0.222999 0.898004 -0.38
0.767 -0.509003 -0.39
-0.905003 -0.141998 -0.4
0.569003 0.713 -0.410001
0.0619981 -0.905003 -0.42
-0.654 0.623003 -0.430001
0.898002 -0.0180016 -0.440001
-0.670003 -0.59 -0.450001
0.0950021 0.883002 -0.460001
0.523 -0.711002 -0.470001
-0.861001 0.170002 -0.480001
0.745003 0.453 -0.490001
-0.241002 -0.832001 -0.5
-0.381 0.771002 -0.51
0.796001 -0.309002 -0.52
-0.790003 -0.308 -0.53
0.372002 0.755 -0.54
0.234 -0.802002 -0.55
-0.709 0.429002 -0.56
0.806002 0.161 -0.57
-0.481002 -0.657 -0.58
-0.0880009 0.803002 -0.59
0.602 -0.527 -0.6
-0.792002 -0.017001 -0.61
0.567 0.542002 -0.62
-0.0509985 -0.775002 -0.63
-0.481004 0.599 -0.64
0.751003 -0.115998 -0.65
-0.625 -0.417004 -0.66
0.176998 0.721003 -0.67
0.352005 -0.643 -0.68
-0.685004 0.232997 -0.69
0.654 0.287005 -0.7
-0.283997 -0.644004 -0.71
-0.222006 0.657 -0.72
0.599005 -0.329996 -0.730002
-0.654 -0.159007 -0.740002
0.368996 0.549006 -0.750002
0.0980072 -0.643 -0.760002
-0.497006 0.399996 -0.770002
0.625 0.0390078 -0.780002
-0.424996 -0.442007 -0.790001
0.0149929 0.6 -0.800002
0.385007 -0.441998 -0.810001
-0.569002 0.0639943 -0.820001
0.451 0.328006 -0.83
-0.107997 -0.532003 -0.84
-0.272003 0.451001 -0.85
0.489003 -0.144002 -0.86
-0.443004 -0.216999 -0.870001
0.174006 0.442 -0.880002
0.163993 -0.426004 -0.890003
-0.389997 0.19401 -0.900003
0.399004 0.113989 -0.910003
-0.20501 -0.333996 -0.920003
-0.0699924 0.361005 -0.930002
0.274 -0.203004 -0.940002
-0.310996 -0.0330048 -0.950005
0.185995 0.210011 -0.960002
0.00400276 -0.242994 -0.970005
-0.136997 0.143992 -0.980005
0.140992 -0.0100054 -0.990005
VERTICES 200 400
1 0
1 1
1 2
1 3
1 4
1 5
1 6
1 7
1 8
1 9
1 10
1 11
1 12
1 13
1 14
1 15
1 16
1 17
1 18
1 19
1 20
1 21
1 22
1 23
1 24
1 25
1 26
1 27
1 28
1 29
1 30
1 31
1 32
1 33
1 34
1 35
1 36
1 37
1 38
1 39
1 40
1 41
1 42
1 43
1 44
1 45
1 46
1 47
1 48
1 49
1 50
1 51
1 52
1 53
1 54
1 55
1 56
1 57
1 58
1 59
1 60
1 61
1 62
1 63
1 64
1 65
1 66
1 67
1 68
1 69
1 70
1 71
1 72
1 73
1 74
1 75
1 76
1 77
1 78
1 79
1 80
1 81
1 82
1 83
1 84
1 85
1 86
1 87
1 88
1 89
1 90
1 91
1 92
1 93
1 94
1 95
1 96
1 97
1 98
1 99
1 100
1 101
1 102
1 103
1 104
1 105
1 106
1 107
1 108
1 109
1 110
1 111
1 112
1 113
1 114
1 115
1 116
1 117
1 118
1 119
1 120
1 121
1 122
1 123
1 124
1 125
1 126
1 127
1 128
1 129
1 130
1 131
1 132
1 133
1 134
1 135
1 136
1 137
1 138
1 139
1 140
1 141
1 142
1 143
1 144
1 145
1 146
1 147
1 148
1 149
1 150
1 151
1 152
1 153
1 154
1 155
1 156
1 157
1 158
1 159
1 160
1 161
1 162
1 163
1 164
1 165
1 166
1 167
1 168
1 169
1 170
1 171
1 172
1 173
1 174
1 175
1 176
1 177
1 178
1 179
1 180
1 181
1 182
1 183
1 184
1 185
1 186
1 187
1 188
1 189
1 190
1 191
1 192
1 193
1 194
1 195
1 196
1 197
1 198
1 199
POINT_DATA 200
VECTORS velocity float
0.00507613 0.00431545 0.000559587
-0.00505126 -0.00469664 -0.000441241
6.34668e-05 0.000362998 7.9853e-06
-6.7569e-06 -3.8664e-05 4.18035e-05
-6.02877e-05 0.000121858 3.20237e-05
1.19619e-05 -5.81286e-05 4.82714e-05
2.01448e-05 -3.8628e-05 3.71736e-05
-9.7875e-05 -4.09701e-06 3.33591e-05
5.93416e-05 9.68364e-05 3.6858e-05
3.11095e-05 -0.000112838 4.06302e-05
-8.73989e-05 5.42082e-05 4.13687e-05
8.21344e-05 7.87223e-06 3.87253e-05
-4.74926e-05 -3.21006e-05 3.48465e-05
1.92698e-05 3.36956e-05 3.40571e-05
-1.94284e-05 -2.92439e-05 2.88881e-05
1.36243e-05 3.72656e-05 2.88016e-05
1.45217e-06 -4.43282e-05 3.19415e-05
-3.42596e-05 4.61335e-05 2.9471e-05
6.27256e-05 -2.14148e-05 3.14448e-05
-6.79641e-05 -2.44755e-05 3.24741e-05
3.65318e-05 6.19628e-05 3.39925e-05
1.32421e-05 -7.56181e-05 3.47897e-05
-5.91066e-05 4.60029e-05 3.50919e-05
7.57838e-05 5.69793e-06 3.53665e-05
-5.1233e-05 -5.57168e-05 3.45448e-05
-1.44696e-06 7.34111e-05 3.41353e-05
4.88761e-05 -4.92664e-05 3.461e-05
-6.56404e-05 -4.57781e-09 3.24095e-05
4.69516e-05 4.49485e-05 3.25963e-05
2.38567e-06 -5.74937e-05 2.89906e-05
-3.93893e-05 4.0541e-05 3.17544e-05
5.36799e-05 7.80955e-07 2.89898e-05
-3.16831e-05 -3.7024e-05 2.76952e-05
-5.20909e-06 4.4947e-05 2.7104e-05
3.52754e-05 -2.71531e-05 2.61179e-05
-4.17343e-05 -5.60076e-06 2.63233e-05
1.93429e-05 3.50451e-05 2.24101e-05
8.31087e-06 -3.82035e-05 2.46883e-05
-3.38233e-05 1.77543e-05 2.22662e-05
3.39935e-05 1.35327e-05 2.23889e-05
-1.5062e-05 -3.31189e-05 2.26234e-05
-1.61638e-05 3.36453e-05 2.00016e-05
3.23362e-05 -1.3923e-05 2.33242e-05
-3.19298e-05 -1.97316e-05 1.9361e-05
9.92241e-06 3.63915e-05 1.98091e-05
2.00212e-05 -3.21543e-05 1.93745e-05
-3.39627e-05 1.09208e-05 2.20644e-05
3.30276e-05 2.0196e-05 1.76582e-05
-8.39551e-06 -3.88839e-05 1.79359e-05
-1.78448e-05 3.33528e-05 1.99067e-05
4.03711e-05 -9.18759e-06 1.81347e-05
-3.57167e-05 -1.80299e-05 1.87206e-05
1.13827e-05 3.98945e-05 1.83257e-05
1.88296e-05 -3.71567e-05 1.68545e-05
-4.00196e-05 1.36377e-05 1.55816e-05
3.93254e-05 1.93002e-05 1.6122e-05
-1.738e-05 -3.74337e-05 1.72373e-05
-1.50033e-05 4.0145e-05 1.65205e-05
3.48164e-05 -2.11434e-05 1.73025e-05
-4.29613e-05 -1.40799e-05 1.50673e-05
2.41009e-05 3.40173e-05 1.67631e-05
5.56404e-06 -4.13674e-05 1.63633e-05
-3.52556e-05 2.61541e-05 1.57172e-05
4.2817e-05 4.03436e-06 1.54092e-05
-2.91431e-05 -3.23961e-05 1.36472e-05
-1.40507e-07 4.32792e-05 1.45378e-05
2.88119e-05 -3.24751e-05 1.54577e-05
-4.08106e-05 7.46896e-06 1.54801e-05
3.51122e-05 2.41174e-05 1.50261e-05
-9.87359e-06 -4.16301e-05 1.39362e-05
-2.08769e-05 3.71559e-05 1.31357e-05
4.0789e-05 -1.392e-05 1.02368e-05
-3.86939e-05 -1.40687e-05 1.2886e-05
1.78919e-05 3.90336e-05 1.02969e-05
1.28721e-05 -4.10753e-05 1.06311e-05
-3.46871e-05 2.30017e-05 1.12609e-05
4.08326e-05 4.34486e-06 1.11374e-05
-2.59057e-05 -3.27143e-05 9.87172e-06
8.29659e-07 4.11205e-05 1.11199e-05
2.8896e-05 -2.93675e-05 1.08215e-05
-4.18641e-05 2.57508e-06 8.18866e-06
3.3011e-05 2.4547e-05 9.01119e-06
-6.97804e-06 -4.13842e-05 8.6455e-06
-1.99569e-05 3.57752e-05 8.76554e-06
3.93507e-05 -1.22987e-05 7.48721e-06
-3.80659e-05 -1.70877e-05 7.50556e-06
1.612e-05 3.72455e-05 5.64105e-06
1.07232e-05 -3.89235e-05 5.05652e-06
-3.54998e-05 2.04298e-05 5.78118e-06
3.99852e-05 9.88382e-06 5.3379e-06
-2.59089e-05 -3.15542e-05 4.65952e-06
-6.31069e-06 4.08415e-05 3.16249e-06
3.17672e-05 -2.70333e-05 4.04635e-06
-4.08695e-05 -8.48956e-07 3.16225e-06
3.10558e-05 2.69797e-05 2.68666e-06
-5.95398e-06 -4.0248e-05 2.96781e-06
-2.45486e-05 3.31586e-05 2.50392e-06
3.94494e-05 -9.66786e-06 1.19091e-06
-3.60829e-05 -1.9638e-05 1.17655e-06
1.60551e-05 3.78698e-05 2.6601e-08
1.47161e-05 -3.79678e-05 -6.51659e-07
-3.61389e-05 2.01483e-05 -6.76271e-07
3.91891e-05 9.99835e-06 -2.14552e-07
-2.23134e-05 -3.40334e-05 -1.63546e-06
-2.67725e-06 4.05498e-05 -1.5299e-06
2.88339e-05 -2.95189e-05 -1.63949e-06
-4.14065e-05 2.80241e-06 -3.00747e-06
3.23589e-05 2.67791e-05 -2.87694e-06
-3.95597e-06 -4.10659e-05 -2.45257e-06
-2.1549e-05 3.48627e-05 -3.69193e-06
3.99543e-05 -1.268e-05 -5.37878e-06
-3.60739e-05 -1.96534e-05 -4.77771e-06
1.5652e-05 3.81454e-05 -6.34273e-06
1.33154e-05 -3.91697e-05 -6.37531e-06
-3.61275e-05 1.99093e-05 -5.73279e-06
4.12269e-05 8.49703e-06 -6.48143e-06
-2.3746e-05 -3.35265e-05 -7.69032e-06
-3.48205e-06 4.19408e-05 -7.87724e-06
3.18224e-05 -2.70685e-05 -9.12042e-06
-4.13821e-05 -1.5672e-07 -9.6527e-06
2.89296e-05 2.85551e-05 -8.45273e-06
-5.09699e-06 -4.18318e-05 -9.6538e-06
-2.50309e-05 3.2945e-05 -1.07334e-05
4.06851e-05 -8.61719e-06 -1.23306e-05
-3.80256e-05 -1.86961e-05 -1.09409e-05
1.36948e-05 3.9654e-05 -1.14798e-05
1.59151e-05 -3.88573e-05 -1.15261e-05
-3.80768e-05 1.59364e-05 -1.19769e-05
3.96108e-05 1.20929e-05 -1.28188e-05
-2.37993e-05 -3.5988e-05 -1.38353e-05
-8.53181e-06 4.04946e-05 -1.40245e-05
3.29922e-05 -2.79219e-05 -1.18225e-05
-4.26087e-05 -2.74057e-06 -1.43746e-05
3.09607e-05 3.02582e-05 -1.33656e-05
-3.08356e-06 -4.35669e-05 -1.3161e-05
-2.68913e-05 3.53683e-05 -1.36527e-05
4.37164e-05 -8.01427e-06 -1.26496e-05
-3.53026e-05 -2.413e-05 -1.57644e-05
1.10359e-05 4.27049e-05 -1.48704e-05
2.08281e-05 -3.85593e-05 -1.42939e-05
-4.08233e-05 1.52587e-05 -1.4711e-05
4.03707e-05 1.65608e-05 -1.64905e-05
-1.86904e-05 -3.94965e-05 -1.47246e-05
-1.44192e-05 3.88832e-05 -1.78417e-05
3.66068e-05 -1.62656e-05 -1.88595e-05
-3.94012e-05 -1.15696e-05 -1.73059e-05
2.1349e-05 3.55264e-05 -1.7408e-05
1.0414e-05 -3.74272e-05 -1.98955e-05
-3.37408e-05 2.10503e-05 -1.96164e-05
3.79485e-05 9.18432e-06 -1.98111e-05
-2.37919e-05 -3.2399e-05 -1.79227e-05
-7.03125e-06 3.62966e-05 -2.0685e-05
3.11762e-05 -2.14533e-05 -1.95951e-05
-3.78402e-05 -5.44757e-06 -1.92375e-05
2.1418e-05 2.99001e-05 -2.04343e-05
7.86316e-06 -3.54648e-05 -2.20382e-05
-2.92802e-05 2.3844e-05 -1.9077e-05
3.72513e-05 4.05572e-06 -1.95774e-05
-2.15274e-05 -3.0043e-05 -1.97382e-05
-9.26293e-06 3.50393e-05 -2.22513e-05
3.03101e-05 -2.30266e-05 -1.91885e-05
-3.58035e-05 -1.03171e-05 -2.10931e-05
1.75039e-05 3.45292e-05 -2.0797e-05
1.49831e-05 -3.57229e-05 -2.3618e-05
-3.69537e-05 1.54004e-05 -2.24968e-05
3.84113e-05 1.81659e-05 -2.3136e-05
-1.06234e-05 -4.30872e-05 -2.60693e-05
-2.34566e-05 3.95311e-05 -2.56213e-05
4.88976e-05 -9.91961e-06 -2.60033e-05
-4.26931e-05 -3.02964e-05 -2.78415e-05
7.38683e-06 5.41043e-05 -3.0131e-05
3.58169e-05 -4.72371e-05 -2.98246e-05
-6.15458e-05 7.14881e-06 -3.08583e-05
4.96948e-05 4.48488e-05 -3.67158e-05
-6.93784e-06 -6.90157e-05 -3.52811e-05
-4.59563e-05 5.80123e-05 -3.54223e-05
7.19475e-05 -1.06778e-05 -3.63061e-05
-6.31333e-05 -4.30779e-05 -3.55751e-05
1.80739e-05 7.80892e-05 -3.57332e-05
3.61576e-05 -6.91098e-05 -3.38585e-05
-7.1026e-05 2.64506e-05 -3.42548e-05
7.16158e-05 2.42688e-05 -3.12308e-05
-3.4893e-05 -5.65962e-05 -3.23028e-05
-3.97043e-06 5.79814e-05 -3.06149e-05
3.05243e-05 -3.79542e-05 -3.08935e-05
-3.16452e-05 1.91038e-05 -3.0186e-05
2.97296e-05 -1.54548e-05 -2.97271e-05
-3.91843e-05 1.40793e-05 -3.27357e-05
5.89494e-05 2.93699e-06 -3.51675e-05
-7.26059e-05 -4.35753e-05 -4.05347e-05
3.48739e-05 9.62786e-05 -4.0841e-05
4.24294e-05 -0.000106538 -4.17174e-05
-0.000104888 4.21706e-05 -3.8588e-05
7.57955e-05 5.02205e-05 -3.46462e-05
6.38088e-06 -3.8759e-05 -3.72568e-05
3.9954e-05 -4.76159e-05 -5.14589e-05
-4.51375e-05 0.000110427 -3.55533e-05
2.75482e-05 5.95318e-05 -5.18194e-05
3.51004e-05 -7.74831e-05 -5.20705e-05
-7.83116e-05 -5.40013e-05 -5.34774e-05
VECTORS force float
0.0240862 0.0203642 0.00267714
-0.0239601 -0.0222938 -0.00208065
0.000315801 0.00184065 3.66172e-05
-3.55049e-05 -0.000192734 0.000209112
-0.000300463 0.000610968 0.000160164
6.03e-05 -0.000290249 0.000241215
0.000101853 -0.000197871 0.000184762
-0.000489464 -2.03695e-05 0.000166736
0.000296609 0.000483967 0.000184272
0.000154576 -0.000564024 0.000202858
-0.00043666 0.000271016 0.000206774
0.000410542 3.92686e-05 0.000193592
-0.000237514 -0.000160306 0.000174161
9.64008e-05 0.000168437 0.000170257
-9.71746e-05 -0.000146247 0.000144415
6.80983e-05 0.000186251 0.000144034
7.22045e-06 -0.000221518 0.00015975
-0.000171151 0.000230555 0.000147412
0.000313429 -0.000107074 0.000157285
-0.000339694 -0.000122312 0.000162387
0.000182601 0.000309712 0.000169975
6.62199e-05 -0.000377989 0.000173934
-0.000295499 0.000229942 0.000175444
0.000378856 2.85469e-05 0.00017679
-0.000256079 -0.000278574 0.000172691
-7.3033e-06 0.000367008 0.000170631
0.000244402 -0.000246261 0.000173008
-0.000328173 -8.8751e-08 0.000162003
0.000234692 0.000224762 0.000162943
1.19507e-05 -0.000287453 0.000144934
-0.000196959 0.000202659 0.000158743
0.000268373 3.92446e-06 0.000144934
-0.000158415 -0.000185106 0.000138477
-2.60325e-05 0.000224723 0.000135525
0.000176351 -0.000135774 0.000130599
-0.000208646 -2.79981e-05 0.000131622
9.67345e-05 0.00017519 0.000112073
4.15401e-05 -0.000190992 0.000123455
-0.000169079 8.87927e-05 0.000111352
0.000169948 6.7635e-05 0.000111961
-7.53118e-05 -0.000165567 0.000113128
-8.07942e-05 0.000168205 0.000100028
0.000161668 -6.96014e-05 0.00011662
-0.000159635 -9.86086e-05 9.68375e-05
4.96266e-05 0.000181921 9.90699e-05
0.000100065 -0.000160762 9.68995e-05
-0.000169797 5.45997e-05 0.000110327
0.000165128 0.000100952 8.83066e-05
-4.19967e-05 -0.000194377 8.97102e-05
-8.92083e-05 0.000166757 9.95376e-05
0.000201817 -4.59551e-05 9.06998e-05
-0.000178588 -9.01483e-05 9.35944e-05
5.69246e-05 0.000199458 9.1633e-05
9.4128e-05 -0.000185781 8.42763e-05
-0.000200075 6.81997e-05 7.79202e-05
0.000196617 9.64758e-05 8.06252e-05
-8.69021e-05 -0.000187175 8.61737e-05
-7.50117e-05 0.000200726 8.2601e-05
0.000174099 -0.000105712 8.64946e-05
-0.000214796 -7.03776e-05 7.53495e-05
0.000120509 0.000170081 8.38052e-05
2.78303e-05 -0.000206846 8.1808e-05
-0.000176257 0.000130778 7.85817e-05
0.000214085 2.01654e-05 7.70484e-05
-0.000145719 -0.000161938 6.82408e-05
-6.89935e-07 0.000216386 7.26989e-05
0.000144044 -0.000162377 7.72781e-05
-0.000204055 3.73444e-05 7.74016e-05
0.000175558 0.000120584 7.51267e-05
-4.9379e-05 -0.000208141 6.9686e-05
-0.000104375 0.000185777 6.56788e-05
0.000203932 -6.96122e-05 5.119e-05
-0.000193466 -7.03522e-05 6.44294e-05
8.94624e-05 0.000195162 5.14848e-05
6.43526e-05 -0.00020537 5.31681e-05
-0.000173438 0.000115003 5.63003e-05
0.000204167 2.17343e-05 5.56777e-05
-0.000129524 -0.000163581 4.93411e-05
4.1391e-06 0.000205607 5.55857e-05
0.000144463 -0.000146847 5.40871e-05
-0.00020932 1.28795e-05 4.09355e-05
0.000165059 0.00012272 4.5058e-05
-3.48923e-05 -0.000206923 4.32193e-05
-9.97923e-05 0.000178872 4.38188e-05
0.000196755 -6.14962e-05 3.74284e-05
-0.000190327 -8.54375e-05 3.75314e-05
8.06048e-05 0.000186224 2.81934e-05
5.36177e-05 -0.000194615 2.52916e-05
-0.000177489 0.000102158 2.88912e-05
0.000199924 4.9407e-05 2.66817e-05
-0.00012954 -0.000157765 2.32804e-05
-3.15379e-05 0.000204204 1.58113e-05
0.000158832 -0.000135162 2.02198e-05
-0.000204346 -4.2437e-06 1.58075e-05
0.000155267 0.000134901 1.34281e-05
-2.97775e-05 -0.000201237 1.48266e-05
-0.000122718 0.000165805 1.25183e-05
0.000197242 -4.83474e-05 5.9423e-06
-0.000180417 -9.81817e-05 5.88484e-06
8.02762e-05 0.000189349 1.35032e-07
7.35921e-05 -0.000189831 -3.23987e-06
-0.000180696 0.000100739 -3.38622e-06
0.000195945 4.99815e-05 -1.06887e-06
-0.000111585 -0.000170148 -8.17784e-06
-1.33944e-05 0.000202746 -7.6438e-06
0.000144158 -0.000147593 -8.19257e-06
-0.000207031 1.4008e-05 -1.50323e-05
0.00016178 0.0001339 -1.43835e-05
-1.97761e-05 -0.000205328 -1.22699e-05
-0.000107765 0.00017429 -1.84574e-05
0.000199772 -6.33849e-05 -2.68907e-05
-0.000180358 -9.82805e-05 -2.38764e-05
7.82535e-05 0.000190728 -3.17109e-05
6.65847e-05 -0.000195846 -3.18644e-05
-0.000180634 9.95445e-05 -2.86687e-05
0.000206132 4.24965e-05 -3.24041e-05
-0.000118711 -0.000167637 -3.84557e-05
-1.7417e-05 0.000209703 -3.93719e-05
0.000159122 -0.000135327 -4.55891e-05
-0.000206913 -7.85463e-07 -4.82476e-05
0.000144669 0.000142758 -4.22425e-05
-2.54913e-05 -0.000209163 -4.82623e-05
-0.000125144 0.000164739 -5.36423e-05
0.000203426 -4.30887e-05 -6.16392e-05
-0.000190127 -9.34872e-05 -5.46809e-05
6.84777e-05 0.000198266 -5.74026e-05
7.95739e-05 -0.000194288 -5.76304e-05
-0.000190379 7.96923e-05 -5.98878e-05
0.000198053 6.0462e-05 -6.40965e-05
-0.000118997 -0.000179938 -6.91695e-05
-4.26649e-05 0.000202468 -7.01246e-05
0.000164957 -0.000139591 -5.91155e-05
-0.000213037 -1.37116e-05 -7.18826e-05
0.000154766 0.000151294 -6.68409e-05
-1.54016e-05 -0.000217822 -6.58183e-05
-0.000134464 0.000176797 -6.82742e-05
0.000218572 -4.00562e-05 -6.326e-05
-0.000176496 -0.000120656 -7.88195e-05
5.51665e-05 0.000213518 -7.4359e-05
0.000104141 -0.000192788 -7.14742e-05
-0.00020411 7.62807e-05 -7.35631e-05
0.000201851 8.28142e-05 -8.24454e-05
-9.3436e-05 -0.000197476 -7.36316e-05
-7.21001e-05 0.000194427 -8.91941e-05
0.000183042 -8.13387e-05 -9.42803e-05
-0.000197012 -5.78489e-05 -8.65231e-05
0.000106738 0.000177637 -8.70308e-05
5.20758e-05 -0.00018714 -9.94662e-05
-0.000168712 0.00010526 -9.80597e-05
0.000189738 4.59272e-05 -9.90524e-05
-0.000118941 -0.00016199 -8.96176e-05
-3.51622e-05 0.00018146 -0.000103438
0.000155871 -0.000107249 -9.79842e-05
-0.000189173 -2.72481e-05 -9.62079e-05
0.000107064 0.000149491 -0.000102184
3.93216e-05 -0.000177298 -0.000110206
-0.000146394 0.00011917 -9.54135e-05
0.000186214 2.03122e-05 -9.79221e-05
-0.000107588 -0.000150207 -9.87205e-05
-4.63328e-05 0.000175163 -0.00011128
0.000151541 -0.000115085 -9.59605e-05
-0.000178972 -5.16297e-05 -0.000105503
8.74824e-05 0.000172633 -0.000104004
7.49457e-05 -0.00017858 -0.000118116
-0.000184747 7.6985e-05 -0.000112497
0.000192018 9.08594e-05 -0.000115714
-5.31099e-05 -0.000215411 -0.000130348
-0.000117303 0.00019763 -0.000128127
0.00024446 -4.96045e-05 -0.000130011
-0.000213454 -0.00015146 -0.000139201
3.69738e-05 0.000270484 -0.000150621
0.000179037 -0.000236188 -0.000149096
-0.000307691 3.57973e-05 -0.000154248
0.000248505 0.000224166 -0.000183532
-3.477e-05 -0.000345024 -0.000176342
-0.000229703 0.000290068 -0.000177073
0.000359678 -5.34563e-05 -0.000181474
-0.00031565 -0.000215322 -0.000177848
9.0407e-05 0.000390356 -0.000178624
0.000180733 -0.000345465 -0.000169295
-0.000355014 0.000132226 -0.000171264
0.000357891 0.000121333 -0.000156203
-0.000174324 -0.000282857 -0.000161564
-1.99064e-05 0.000289711 -0.000153147
0.000152549 -0.000189623 -0.000154521
-0.000158148 9.54592e-05 -0.000150966
0.000148615 -7.72516e-05 -0.000148644
-0.000195917 7.03237e-05 -0.000163653
0.00029468 1.48487e-05 -0.000175775
-0.000362848 -0.000217848 -0.000202635
0.000174284 0.000481154 -0.000204186
0.000211988 -0.000532416 -0.000208581
-0.000524169 0.000210765 -0.000192933
0.000378779 0.000250953 -0.000173242
3.19501e-05 -0.000193763 -0.000186266
0.000199702 -0.000237977 -0.000257265
-0.000225559 0.000551655 -0.000177798
0.000137542 0.000297522 -0.000259048
0.00017555 -0.000387202 -0.000260305
-0.000391427 -0.000269673 -0.000267341
SCALARS mass float 1
LOOKUP_TABLE default
1
1
1
1
1
1
1
1
1
1
1
1
1
1
1
1
1
1
1
1
1
1
1
1
1
1
1
1
1
1
1
1
1
1
1
1
1
1
1
1
1
1
1
1
1
1
1
1
1
1
1
1
1
1
1
1
1
1
1
1
1
1
1
1
1
1
1
1
1
1
1
1
1
1
1
1
1
1
1
1
1
1
1
1
1
1
1
1
1
1
1
1
1
1
1
1
1
1
1
1
1
1
1
1
1
1
1
1
1
1
1
1
1
1
1
1
1
1
1
1
1
1
1
1
1
1
1
1
1
1
1
1
1
1
1
1
1
1
1
1
1
1
1
1
1
1
1
1
1
1
1
1
1
1
1
1
1
1
1
1
1
1
1
1
1
1
1
1
1
1
1
1
1
1
1
1
1
1
1
1
1
1
1
1
1
1
1
1
1
1
1
1
1
1
1
1
1
1
1
1
