# vtk DataFile Version 3.0
Molecular Dynamics Particle Data
ASCII
DATASET POLYDATA
POINTS 200 float
0.00301914 0.00255305 1.00033
-0.107003 -0.0977944 0.989739
0.0170395 0.19823 0.98
0.147996 -0.193024 0.970026
-0.276038 0.0490764 0.960019
0.263007 0.167964 0.95003
-0.0889873 -0.329024 0.940021
-0.169061 0.326 0.930019
0.368037 -0.13394 0.920021
-0.382981 -0.15807 0.910025
0.184945 0.395034 0.900025
0.136051 -0.434996 0.890023
-0.41103 0.23798 0.88002
0.482011 0.106021 0.870019
-0.293012 -0.417018 0.860018
-0.0679916 0.522021 0.850017
0.415 -0.350028 0.840019
-0.557019 -0.0229712 0.830018
0.406039 0.403987 0.820018
-0.0270425 -0.586015 0.810019
-0.383977 0.461039 0.800019
0.608003 -0.0820472 0.79002
-0.514036 -0.356971 0.78002
0.140047 0.622 0.77002
0.322968 -0.564034 0.760019
-0.63 0.201046 0.750019
0.611031 0.281969 0.74002
-0.264041 -0.63 0.730019
-0.234971 0.653028 0.720019
0.623 -0.328036 0.710018
-0.691024 -0.181975 0.700019
0.391033 0.609 0.690018
0.12398 -0.723021 0.680017
-0.587 0.455028 0.670017
0.74902 0.061983 0.660016
-0.516025 -0.558 0.650016
0.00401209 0.76802 0.640014
0.522 -0.575022 0.630015
-0.781019 0.0720111 0.620014
0.631019 0.479008 0.610014
-0.143009 -0.787019 0.600014
-0.430009 0.683019 0.590012
0.786019 -0.215009 0.580015
-0.731019 -0.375012 0.570011
0.288006 0.777021 0.560012
0.315012 -0.774019 0.550011
-0.761019 0.360007 0.540014
0.810019 0.250012 0.53001
-0.432004 -0.737023 0.52001
-0.181011 0.841019 0.510012
0.706024 -0.502 0.50001
-0.86502 -0.108011 0.490011
0.569 0.668024 0.48001
0.0320118 -0.882021 0.47001
-0.623024 0.632004 0.460009
0.892023 -0.0459879 0.450009
-0.692009 -0.572022 0.44001
0.124991 0.894024 0.43001
0.51502 -0.747013 0.42001
-0.889027 0.204991 0.410009
0.797015 0.452021 0.40001
-0.284 -0.876025 0.390009
-0.384022 0.842016 0.380009
0.855026 -0.363 0.370009
-0.879018 -0.31102 0.360008
0.44 0.827027 0.350009
0.235018 -0.911019 0.340009
-0.792025 0.514 0.330009
0.93502 0.156015 0.320009
-0.586 -0.749025 0.310009
-0.074013 0.951021 0.300008
0.699025 -0.653004 0.290006
-0.960023 0.00899121 0.280008
0.71601 0.643023 0.270006
-0.093992 -0.961025 0.260007
-0.58202 0.774014 0.250007
0.954025 -0.177998 0.240007
-0.826016 -0.514019 0.230006
0.262 0.940025 0.220007
0.442018 -0.872018 0.210007
-0.917026 0.345 0.200005
0.911019 0.366015 0.190005
-0.426002 -0.887025 0.180005
-0.286012 0.94302 0.170005
0.849024 -0.503001 0.160004
-0.968022 -0.203011 0.150004
0.577008 0.804021 0.140004
0.118007 -0.984023 0.130003
-0.75302 0.647012 0.120004
0.993024 0.0310062 0.110003
-0.712016 -0.695019 0.100003
0.0559961 0.994025 0.090002
0.631019 -0.772017 0.0800024
-0.987025 0.143 0.070002
0.825018 0.562017 0.0600017
-0.229004 -0.972024 0.0500019
-0.488015 0.872019 0.0400015
0.949024 -0.313006 0.0300007
-0.91202 -0.410012 0.0200007
0.395009 0.919022 0.01
0.329009 -0.944022 -4.06189e-07
-0.88102 0.474012 -0.0100004
0.969023 0.245006 -0.02
-0.549014 -0.835019 -0.030001
-0.16 0.986025 -0.040001
0.784017 -0.619018 -0.050001
-0.996025 -0.0729983 -0.0600019
0.685019 0.726017 -0.0700018
-0.0150025 -0.997025 -0.0800015
-0.662013 0.74402 -0.0900022
0.990024 -0.101008 -0.100003
-0.79802 -0.593012 -0.110003
0.18701 0.975022 -0.120004
0.520003 -0.844023 -0.130004
-0.95202 0.271012 -0.140004
0.884025 0.443004 -0.150004
-0.352015 -0.922019 -0.160005
-0.363 0.916026 -0.170005
0.885019 -0.430017 -0.180005
-0.941025 -0.28 -0.190006
0.504018 0.840017 -0.200005
0.195997 -0.958026 -0.210006
-0.790016 0.573019 -0.220007
0.967025 0.110995 -0.230008
-0.636022 -0.733011 -0.240007
-0.0259914 0.968024 -0.250007
0.671007 -0.694023 -0.260007
-0.961022 0.05901 -0.270007
0.746024 0.604 -0.280008
-0.141015 -0.94702 -0.290008
-0.533 0.791025 -0.300009
0.924019 -0.222017 -0.310007
-0.829026 -0.459 -0.320009
0.300019 0.895018 -0.330008
0.382 -0.859027 -0.340008
-0.859017 0.374022 -0.350008
0.882027 0.302996 -0.360008
-0.444022 -0.816015 -0.370009
-0.222993 0.898026 -0.380009
0.767013 -0.509023 -0.390009
-0.905025 -0.141991 -0.400009
0.569024 0.713008 -0.41001
0.0619883 -0.905024 -0.420009
-0.654005 0.623023 -0.43001
0.898021 -0.0180102 -0.440011
-0.670024 -0.59 -0.45001
0.0950133 0.88302 -0.46001
0.523 -0.711022 -0.470012
-0.861019 0.170013 -0.480012
0.745022 0.453005 -0.490012
-0.241015 -0.832019 -0.50001
-0.381002 0.77102 -0.510013
0.796018 -0.309013 -0.520012
-0.790022 -0.308 -0.530011
0.372013 0.755018 -0.540012
0.234005 -0.80202 -0.550014
-0.709018 0.429015 -0.560011
0.806021 0.161002 -0.570012
-0.481013 -0.657018 -0.580012
-0.0880058 0.80302 -0.590014
0.602018 -0.527014 -0.600011
-0.79202 -0.0170064 -0.610013
0.567009 0.542019 -0.620013
-0.0509906 -0.77502 -0.630015
-0.481023 0.599007 -0.640014
0.751023 -0.115989 -0.650014
-0.625 -0.417027 -0.660016
0.176985 0.721024 -0.670016
0.352031 -0.643 -0.680016
-0.685026 0.232981 -0.690017
0.654 0.287033 -0.700018
-0.283978 -0.644029 -0.710018
-0.222038 0.657 -0.720018
0.599031 -0.329972 -0.730021
-0.654 -0.159043 -0.74002
0.368971 0.549035 -0.75002
0.098045 -0.643 -0.76002
-0.497039 0.399973 -0.77002
0.62501 0.0390488 -0.78002
-0.424977 -0.442043 -0.790019
0.0149556 0.600016 -0.800019
0.385045 -0.441985 -0.810018
-0.56902 0.0639646 -0.820019
0.451 0.328036 -0.830018
-0.107981 -0.532022 -0.840018
-0.272019 0.451011 -0.850018
0.489018 -0.144009 -0.860018
-0.443024 -0.216991 -0.870019
0.174037 0.442 -0.88002
0.163955 -0.426027 -0.890025
-0.389978 0.19406 -0.900025
0.399026 0.113933 -0.910026
-0.205065 -0.333974 -0.920023
-0.0699527 0.361031 -0.93002
0.274001 -0.203024 -0.940021
-0.310975 -0.0330297 -0.950032
0.185972 0.210069 -0.96002
0.00401719 -0.242963 -0.970032
-0.136978 0.143952 -0.980032
0.140951 -0.0100337 -0.990033
VERTICES 200 400
1 0
1 1
1 2
1 3
1 4
1 5
1 6
1 7
1 8
1 9
1 10
1 11
1 12
1 13
1 14
1 15
1 16
1 17
1 18
1 19
1 20
1 21
1 22
1 23
1 24
1 25
1 26
1 27
1 28
1 29
1 30
1 31
1 32
1 33
1 34
1 35
1 36
1 37
1 38
1 39
1 40
1 41
1 42
1 43
1 44
1 45
1 46
1 47
1 48
1 49
1 50
1 51
1 52
1 53
1 54
1 55
1 56
1 57
1 58
1 59
1 60
1 61
1 62
1 63
1 64
1 65
1 66
1 67
1 68
1 69
1 70
1 71
1 72
1 73
1 74
1 75
1 76
1 77
1 78
1 79
1 80
1 81
1 82
1 83
1 84
1 85
1 86
1 87
1 88
1 89
1 90
1 91
1 92
1 93
1 94
1 95
1 96
1 97
1 98
1 99
1 100
1 101
1 102
1 103
1 104
1 105
1 106
1 107
1 108
1 109
1 110
1 111
1 112
1 113
1 114
1 115
1 116
1 117
1 118
1 119
1 120
1 121
1 122
1 123
1 124
1 125
1 126
1 127
1 128
1 129
1 130
1 131
1 132
1 133
1 134
1 135
1 136
1 137
1 138
1 139
1 140
1 141
1 142
1 143
1 144
1 145
1 146
1 147
1 148
1 149
1 150
1 151
1 152
1 153
1 154
1 155
1 156
1 157
1 158
1 159
1 160
1 161
1 162
1 163
1 164
1 165
1 166
1 167
1 168
1 169
1 170
1 171
1 172
1 173
1 174
1 175
1 176
1 177
1 178
1 179
1 180
1 181
1 182
1 183
1 184
1 185
1 186
1 187
1 188
1 189
1 190
1 191
1 192
1 193
1 194
1 195
1 196
1 197
1 198
1 199
POINT_DATA 200
VECTORS velocity float
0.0112428 0.0094278 0.00126445
-0.0111784 -0.010411 -0.000962433
0.000156535 0.000940463 1.56723e-05
-1.90494e-05 -9.59089e-05 0.000104623
-0.000149442 0.000306719 8.0133e-05
3.05072e-05 -0.000144803 0.000120498
5.18569e-05 -0.000102675 9.15041e-05
-0.000244815 -1.0085e-05 8.33181e-05
0.000148217 0.000241809 9.21218e-05
7.65257e-05 -0.000281858 0.000101189
-0.000218077 0.000135482 0.000103332
0.000205146 1.95498e-05 9.67573e-05
-0.000118793 -8.00024e-05 8.70248e-05
4.82622e-05 8.41761e-05 8.5104e-05
-4.86232e-05 -7.31618e-05 7.21876e-05
3.40333e-05 9.30683e-05 7.20446e-05
3.57964e-06 -0.000110654 7.99191e-05
-8.54645e-05 0.000115193 7.37635e-05
0.000156577 -5.35383e-05 7.86925e-05
-0.00016974 -6.10842e-05 8.1232e-05
9.12632e-05 0.000154776 8.49995e-05
3.3114e-05 -0.000188908 8.69533e-05
-0.000147727 0.000114915 8.76994e-05
0.000189365 1.43208e-05 8.83538e-05
-0.000127978 -0.000139289 8.63088e-05
-3.7131e-06 0.000183458 8.52645e-05
0.00012222 -0.000123059 8.64487e-05
-0.000164057 -1.02773e-07 8.09517e-05
0.000117278 0.000112401 8.14191e-05
6.01904e-06 -0.000143707 7.24286e-05
-9.8494e-05 0.000101278 7.93315e-05
0.000134166 1.99693e-06 7.24376e-05
-7.91778e-05 -9.25558e-05 6.92184e-05
-1.30312e-05 0.000112345 6.77477e-05
8.81635e-05 -6.78764e-05 6.53005e-05
-0.000104306 -1.40111e-05 6.57995e-05
4.838e-05 8.75668e-05 5.60566e-05
2.07768e-05 -9.5479e-05 6.17206e-05
-8.45087e-05 4.4409e-05 5.56993e-05
8.49651e-05 3.37866e-05 5.60024e-05
-3.76706e-05 -8.2753e-05 5.65875e-05
-4.03542e-05 8.40912e-05 5.00446e-05
8.08057e-05 -3.48124e-05 5.83326e-05
-7.98033e-05 -4.92651e-05 4.84471e-05
2.48289e-05 9.09207e-05 4.95662e-05
5.00017e-05 -8.0365e-05 4.84736e-05
-8.48701e-05 2.73093e-05 5.5187e-05
8.25443e-05 5.04399e-05 4.41848e-05
-2.10156e-05 -9.71416e-05 4.48916e-05
-4.45905e-05 8.33662e-05 4.97825e-05
0.000100859 -2.29961e-05 4.53817e-05
-8.92805e-05 -4.50591e-05 4.68099e-05
2.84721e-05 9.97001e-05 4.58264e-05
4.70483e-05 -9.28796e-05 4.21449e-05
-0.000100017 3.41069e-05 3.896e-05
9.82988e-05 4.82188e-05 4.03148e-05
-4.34551e-05 -9.35713e-05 4.30856e-05
-3.7495e-05 0.000100358 4.12962e-05
8.70413e-05 -5.28589e-05 4.32418e-05
-0.00010739 -3.51744e-05 3.7672e-05
6.0253e-05 8.50469e-05 4.18903e-05
1.39224e-05 -0.000103428 4.0893e-05
-8.81256e-05 6.53903e-05 3.9283e-05
0.000107048 1.00879e-05 3.85146e-05
-7.28602e-05 -8.09729e-05 3.41113e-05
-3.41742e-07 0.000108196 3.63353e-05
7.20152e-05 -8.11925e-05 3.86288e-05
-0.000102026 1.86774e-05 3.86826e-05
8.7784e-05 6.02848e-05 3.75486e-05
-2.46989e-05 -0.000104063 3.48224e-05
-5.21801e-05 9.28895e-05 3.2829e-05
0.000101952 -3.48111e-05 2.55879e-05
-9.67328e-05 -3.51718e-05 3.22036e-05
4.47327e-05 9.75671e-05 2.57421e-05
3.21657e-05 -0.000102679 2.65818e-05
-8.6712e-05 5.75015e-05 2.81497e-05
0.000102078 1.0867e-05 2.78384e-05
-6.47625e-05 -8.17794e-05 2.46765e-05
2.06974e-06 0.000102799 2.77873e-05
7.22381e-05 -7.34148e-05 2.70448e-05
-0.000104654 6.44228e-06 2.04648e-05
8.25233e-05 6.13651e-05 2.25238e-05
-1.7452e-05 -0.000103454 2.16018e-05
-4.98931e-05 8.94331e-05 2.19044e-05
9.83686e-05 -3.07533e-05 1.86996e-05
-9.51604e-05 -4.27152e-05 1.87567e-05
4.03057e-05 9.31017e-05 1.40952e-05
2.68152e-05 -9.73014e-05 1.26436e-05
-8.87392e-05 5.10762e-05 1.44473e-05
9.99562e-05 2.47005e-05 1.33417e-05
-6.47644e-05 -7.88859e-05 1.1645e-05
-1.57636e-05 0.000102097 7.90809e-06
7.94045e-05 -6.75884e-05 1.01101e-05
-0.000102168 -2.12054e-06 7.90267e-06
7.76378e-05 6.74419e-05 6.71579e-06
-1.48842e-05 -0.000100615 7.41087e-06
-6.13575e-05 8.28984e-05 6.25767e-06
9.86172e-05 -2.41721e-05 2.96936e-06
-9.02057e-05 -4.90849e-05 2.94267e-06
4.01279e-05 9.46745e-05 6.34717e-08
3.6779e-05 -9.4919e-05 -1.62022e-06
-9.03437e-05 5.03673e-05 -1.692e-06
9.79689e-05 2.49878e-05 -5.36974e-07
-5.57885e-05 -8.50719e-05 -4.08886e-06
-6.7007e-06 0.000101368 -3.82195e-06
7.20867e-05 -7.37859e-05 -4.09878e-06
-0.00010351 6.99918e-06 -7.51461e-06
8.08898e-05 6.69472e-05 -7.1949e-06
-9.89315e-06 -0.000102658 -6.13891e-06
-5.38773e-05 8.71428e-05 -9.22905e-06
9.98818e-05 -3.16863e-05 -1.34427e-05
-9.01768e-05 -4.91348e-05 -1.19397e-05
3.91263e-05 9.53588e-05 -1.58498e-05
3.33039e-05 -9.79083e-05 -1.59239e-05
-9.03142e-05 4.97664e-05 -1.43321e-05
0.00010306 2.12506e-05 -1.6192e-05
-5.93568e-05 -8.38143e-05 -1.92228e-05
-8.71067e-06 0.000104846 -1.96803e-05
7.95518e-05 -6.76726e-05 -2.27905e-05
-0.000103451 -3.93329e-07 -2.41198e-05
7.2326e-05 7.13797e-05 -2.11301e-05
-1.27405e-05 -0.000104575 -2.41276e-05
-6.2572e-05 8.23629e-05 -2.68255e-05
0.000101709 -2.15413e-05 -3.08128e-05
-9.50489e-05 -4.67457e-05 -2.73419e-05
3.42336e-05 9.91309e-05 -2.86946e-05
3.97894e-05 -9.71338e-05 -2.88045e-05
-9.51888e-05 3.98429e-05 -2.99341e-05
9.90162e-05 3.02402e-05 -3.20303e-05
-5.94869e-05 -8.99732e-05 -3.45693e-05
-2.13371e-05 0.000101231 -3.50463e-05
8.248e-05 -6.97851e-05 -2.95548e-05
-0.000106519 -6.86053e-06 -3.5924e-05
7.73873e-05 7.56475e-05 -3.34075e-05
-7.70357e-06 -0.000108914 -3.29009e-05
-6.72339e-05 8.83983e-05 -3.41252e-05
0.000109283 -2.0024e-05 -3.1625e-05
-8.82538e-05 -6.03292e-05 -3.93933e-05
2.75783e-05 0.000106758 -3.71709e-05
5.20774e-05 -9.63829e-05 -3.57254e-05
-0.000102055 3.81337e-05 -3.6772e-05
0.000100906 4.14148e-05 -4.12151e-05
-4.67015e-05 -9.87306e-05 -3.68156e-05
-3.60582e-05 9.71928e-05 -4.45946e-05
9.15183e-05 -4.06657e-05 -4.71366e-05
-9.84815e-05 -2.89337e-05 -4.32678e-05
5.33531e-05 8.88091e-05 -4.35238e-05
2.60431e-05 -9.35517e-05 -4.97408e-05
-8.4347e-05 5.26157e-05 -4.90408e-05
9.4847e-05 2.29667e-05 -4.95462e-05
-5.94419e-05 -8.09805e-05 -4.48345e-05
-1.75934e-05 9.07035e-05 -5.174e-05
7.7926e-05 -5.3607e-05 -4.90067e-05
-9.45452e-05 -1.36467e-05 -4.81368e-05
5.35121e-05 7.4737e-05 -5.11075e-05
1.96715e-05 -8.86239e-05 -5.51238e-05
-7.31864e-05 5.95546e-05 -4.77308e-05
9.30652e-05 1.01856e-05 -4.89944e-05
-5.37635e-05 -7.50935e-05 -4.9384e-05
-2.3184e-05 8.75503e-05 -5.56651e-05
7.57643e-05 -5.74913e-05 -4.80212e-05
-8.94524e-05 -2.58344e-05 -5.27792e-05
4.37144e-05 8.63033e-05 -5.20218e-05
3.74792e-05 -8.92661e-05 -5.90731e-05
-9.23609e-05 3.84782e-05 -5.62533e-05
9.5988e-05 4.54357e-05 -5.78667e-05
-2.65711e-05 -0.000107685 -6.51563e-05
-5.86356e-05 9.88082e-05 -6.40523e-05
0.00012221 -2.48182e-05 -6.49854e-05
-0.000106731 -7.56957e-05 -6.95724e-05
1.85343e-05 0.000135216 -7.52654e-05
8.94689e-05 -0.000118107 -7.45059e-05
-0.000153814 1.79535e-05 -7.70734e-05
0.000124265 0.000112003 -9.17024e-05
-1.74474e-05 -0.000172466 -8.81138e-05
-0.000114777 0.000145036 -8.84868e-05
0.000179784 -2.67805e-05 -9.06863e-05
-0.0001578 -0.000107594 -8.88944e-05
4.52168e-05 0.000195093 -8.92898e-05
9.03251e-05 -0.000172662 -8.4651e-05
-0.000177408 6.60605e-05 -8.56551e-05
0.000178814 6.0658e-05 -7.81426e-05
-8.7045e-05 -0.000141337 -8.08375e-05
-9.99127e-06 0.000144724 -7.66305e-05
7.62258e-05 -9.46984e-05 -7.73125e-05
-7.90347e-05 4.76864e-05 -7.5511e-05
7.43159e-05 -3.85974e-05 -7.43216e-05
-9.79661e-05 3.50979e-05 -8.18082e-05
0.000147263 7.57022e-06 -8.78279e-05
-0.000181286 -0.000108891 -0.000101289
8.70755e-05 0.000240377 -0.000102076
0.000105851 -0.000266005 -0.000104286
-0.00026187 0.000105313 -9.64581e-05
0.000189246 0.000125364 -8.66322e-05
1.59937e-05 -9.68667e-05 -9.31227e-05
9.98027e-05 -0.000118898 -0.000128605
-0.000112667 0.000275442 -8.89304e-05
6.8616e-05 0.000148653 -0.000129482
8.78113e-05 -0.000193438 -0.000130111
-0.000195611 -0.00013457 -0.000133627
VECTORS force float
0.0166049 0.0133063 0.00198491
-0.0164651 -0.0154135 -0.00135194
0.000302296 0.00203473 1.11704e-05
-4.7956e-05 -0.000188315 0.000209776
-0.000292719 0.000622737 0.00016065
6.38284e-05 -0.000287153 0.000240156
0.000110847 -0.000233945 0.000176293
-0.000490267 -1.94488e-05 0.000166259
0.00029577 0.000482279 0.000184128
0.000147183 -0.000562596 0.000200569
-0.000434146 0.000270791 0.000206232
0.000409365 3.84243e-05 0.000193215
-0.000237872 -0.00015882 0.000173615
9.69597e-05 0.00016803 0.000170005
-9.75113e-05 -0.000146585 0.000144217
6.79547e-05 0.000185727 0.000144261
6.91211e-06 -0.000220516 0.000160155
-0.000170083 0.000229738 0.000147915
0.00031202 -0.000107093 0.000157773
-0.000338655 -0.00012161 0.000162742
0.000182231 0.00030892 0.000170097
6.62068e-05 -0.00037718 0.000173868
-0.000295253 0.000229419 0.000175266
0.000378297 2.89397e-05 0.000176455
-0.000255499 -0.000278549 0.000172391
-7.83337e-06 0.000366604 0.000170216
0.00024456 -0.000245639 0.000172567
-0.000327939 -5.8398e-07 0.000161596
0.000234141 0.000224914 0.000162549
1.22763e-05 -0.0002873 0.000144654
-0.000197066 0.00020226 0.00015844
0.00026821 4.15231e-06 0.00014474
-0.00015822 -0.000185113 0.000138329
-2.60838e-05 0.000224614 0.000135451
0.00017625 -0.000135715 0.00013059
-0.000208509 -2.80486e-05 0.000131558
9.68511e-05 0.000174971 0.000112213
4.15586e-05 -0.000190851 0.000123415
-0.000168854 8.88766e-05 0.000111498
0.000169863 6.74137e-05 0.000112099
-7.53732e-05 -0.000165364 0.00011325
-8.05242e-05 0.000168095 0.000100214
0.000161501 -6.96145e-05 0.000116716
-0.000159527 -9.82904e-05 9.70574e-05
4.96853e-05 0.000181679 9.92393e-05
9.97971e-05 -0.000160656 9.7086e-05
-0.000169649 5.46033e-05 0.000110418
0.000164999 0.000100701 8.84943e-05
-4.21149e-05 -0.000194057 8.99499e-05
-8.91053e-05 0.000166679 9.95939e-05
0.000201453 -4.61158e-05 9.0905e-05
-0.000178485 -9.00096e-05 9.36741e-05
5.7023e-05 0.000199206 9.1706e-05
9.39547e-05 -0.000185674 8.4359e-05
-0.000199879 6.8266e-05 7.79636e-05
0.000196503 9.62638e-05 8.07097e-05
-8.6913e-05 -0.000187096 8.61508e-05
-7.48712e-05 0.000200643 8.26326e-05
0.000174077 -0.000105696 8.64597e-05
-0.000214677 -7.01851e-05 7.54118e-05
0.000120506 0.000170045 8.37796e-05
2.78509e-05 -0.000206842 8.17617e-05
-0.000176128 0.000130801 7.85917e-05
0.00021409 2.01692e-05 7.70127e-05
-0.000145728 -0.00016186 6.82177e-05
-6.39945e-07 0.000216376 7.26196e-05
0.000143967 -0.000162392 7.7213e-05
-0.00020403 3.73823e-05 7.72839e-05
0.000175567 0.000120544 7.50316e-05
-4.94744e-05 -0.000208036 6.95834e-05
-0.000104326 0.000185768 6.56134e-05
0.00020383 -6.96468e-05 5.11713e-05
-0.000193462 -7.03516e-05 6.43381e-05
8.94684e-05 0.000195095 5.14875e-05
6.4261e-05 -0.00020533 5.31469e-05
-0.000173432 0.000114983 5.62726e-05
0.000204137 2.17298e-05 5.56353e-05
-0.000129518 -0.000163546 4.93284e-05
4.12288e-06 0.00020559 5.55122e-05
0.000144462 -0.000146826 5.40257e-05
-0.000209277 1.2912e-05 4.09002e-05
0.00016503 0.000122709 4.50112e-05
-3.49279e-05 -0.000206886 4.31385e-05
-9.9775e-05 0.000178839 4.37557e-05
0.000196674 -6.15558e-05 3.73436e-05
-0.000190299 -8.54017e-05 3.74781e-05
8.05932e-05 0.000186176 2.81781e-05
5.36518e-05 -0.00019457 2.52765e-05
-0.000177463 0.00010212 2.89175e-05
0.000199884 4.93666e-05 2.66643e-05
-0.000129485 -0.000157776 2.33362e-05
-3.147e-05 0.000204161 1.58263e-05
0.000158768 -0.000135177 2.02058e-05
-0.00020431 -4.2311e-06 1.5786e-05
0.000155267 0.000134847 1.34109e-05
-2.97506e-05 -0.000201205 1.47967e-05
-0.000122662 0.000165791 1.24719e-05
0.000197221 -4.83188e-05 5.9178e-06
-0.000180385 -9.81359e-05 5.85304e-06
8.02376e-05 0.000189323 1.43905e-07
7.35105e-05 -0.000189823 -3.21829e-06
-0.000180656 0.000100722 -3.35315e-06
0.000195912 4.99515e-05 -1.08947e-06
-0.000111555 -0.000170121 -8.15086e-06
-1.34252e-05 0.000202707 -7.63871e-06
0.00014417 -0.000147534 -8.17895e-06
-0.000206992 1.39675e-05 -1.50167e-05
0.000161769 0.000133868 -1.44236e-05
-1.98131e-05 -0.000205288 -1.22922e-05
-0.000107729 0.000174264 -1.85029e-05
0.000199739 -6.33307e-05 -2.6865e-05
-0.000180349 -9.82227e-05 -2.39015e-05
7.82239e-05 0.000190693 -3.16701e-05
6.66593e-05 -0.000195745 -3.18163e-05
-0.000180605 9.94883e-05 -2.8642e-05
0.000206101 4.25072e-05 -3.23423e-05
-0.000118679 -0.000167614 -3.84022e-05
-1.74561e-05 0.000209658 -3.93036e-05
0.000159088 -0.000135332 -4.55341e-05
-0.000206884 -7.939e-07 -4.81842e-05
0.000144638 0.000142742 -4.22478e-05
-2.5447e-05 -0.000209122 -4.82285e-05
-0.000125123 0.000164737 -5.36168e-05
0.000203412 -4.30842e-05 -6.15487e-05
-0.000190061 -9.34944e-05 -5.46831e-05
6.8456e-05 0.000198252 -5.7338e-05
7.95673e-05 -0.000194253 -5.75684e-05
-0.000190368 7.96934e-05 -5.98108e-05
0.000197964 6.05325e-05 -6.39757e-05
-0.000118936 -0.000179943 -6.90597e-05
-4.27098e-05 0.000202418 -7.00205e-05
0.000164952 -0.000139494 -5.90932e-05
-0.00021302 -1.37594e-05 -7.17818e-05
0.000154727 0.000151297 -6.67885e-05
-1.53881e-05 -0.00021781 -6.57918e-05
-0.000134489 0.000176689 -6.82609e-05
0.000218492 -3.99469e-05 -6.32722e-05
-0.000176451 -0.00012067 -7.87775e-05
5.50524e-05 0.000213449 -7.43733e-05
0.000104175 -0.000192677 -7.14624e-05
-0.000204065 7.6172e-05 -7.35551e-05
0.000201708 8.28701e-05 -8.24286e-05
-9.32585e-05 -0.000197388 -7.36842e-05
-7.21447e-05 0.00019431 -8.91664e-05
0.000183007 -8.129e-05 -9.42519e-05
-0.000196821 -5.7924e-05 -8.65511e-05
0.000106577 0.000177554 -8.70962e-05
5.21155e-05 -0.000187028 -9.94558e-05
-0.000168648 0.000105152 -9.80992e-05
0.000189645 4.59079e-05 -9.91183e-05
-0.00011874 -0.000161903 -8.97502e-05
-3.51858e-05 0.000181335 -0.000103498
0.000155794 -0.00010711 -9.80773e-05
-0.000188892 -2.73958e-05 -9.64094e-05
0.000106907 0.000149415 -0.000102289
3.93712e-05 -0.000177119 -0.000110319
-0.000146317 0.000118896 -9.5605e-05
0.000185917 2.05208e-05 -9.8154e-05
-0.000107333 -0.000150139 -9.88935e-05
-4.6441e-05 0.00017494 -0.000111438
0.000151516 -0.000114641 -9.62675e-05
-0.000178711 -5.17953e-05 -0.000105705
8.71664e-05 0.00017258 -0.000104214
7.50439e-05 -0.000178379 -0.000118238
-0.000184686 7.67816e-05 -0.000112618
0.000191842 9.09247e-05 -0.000115805
-5.3196e-05 -0.000215241 -0.000130239
-0.000117231 0.00019755 -0.000128085
0.000244282 -4.97215e-05 -0.000129877
-0.000213458 -0.000151205 -0.000139015
3.73378e-05 0.000270257 -0.000150271
0.00017862 -0.000236267 -0.000148778
-0.00030742 3.62462e-05 -0.000153842
0.000248642 0.00022346 -0.000183003
-3.53235e-05 -0.000344619 -0.000175855
-0.000229004 0.000290086 -0.000176623
0.000359193 -5.39171e-05 -0.000181039
-0.000315418 -0.000214711 -0.000177571
9.04862e-05 0.000389589 -0.000178465
0.000180347 -0.000344783 -0.000169337
-0.000354085 0.000131769 -0.00017143
0.000356554 0.000121268 -0.000156606
-0.000173205 -0.000281965 -0.000162043
-2.02928e-05 0.000288344 -0.000153711
0.000152065 -0.000188528 -0.000154987
-0.000157714 9.50335e-05 -0.000151236
0.00014865 -7.69632e-05 -0.000148632
-0.000195953 6.97249e-05 -0.000163469
0.000293985 1.62283e-05 -0.00017522
-0.000361482 -0.000217562 -0.000202353
0.000173639 0.000479254 -0.000204032
0.000210682 -0.0005304 -0.000208526
-0.000522084 0.000210108 -0.000192868
0.000377346 0.000249823 -0.000173341
3.21444e-05 -0.000193588 -0.000186162
0.00019921 -0.000237128 -0.000257009
-0.000224508 0.000547911 -0.000178077
0.000136022 0.000296468 -0.000258651
0.000175913 -0.000385583 -0.000259917
-0.000390415 -0.000267086 -0.000266943
SCALARS mass float 1
LOOKUP_TABLE default
1
1
1
1
1
1
1
1
1
1
1
1
1
1
1
1
1
1
1
1
1
1
1
1
1
1
1
1
1
1
1
1
1
1
1
1
1
1
1
1
1
1
1
1
1
1
1
1
1
1
1
1
1
1
1
1
1
1
1
1
1
1
1
1
1
1
1
1
1
1
1
1
1
1
1
1
1
1
1
1
1
1
1
1
1
1
1
1
1
1
1
1
1
1
1
1
1
1
1
1
1
1
1
1
1
1
1
1
1
1
1
1
1
1
1
1
1
1
1
1
1
1
1
1
1
1
1
1
1
1
1
1
1
1
1
1
1
1
1
1
1
1
1
1
1
1
1
1
1
1
1
1
1
1
1
1
1
1
1
1
1
1
1
1
1
1
1
1
1
1
1
1
1
1
1
1
1
1
1
1
1
1
1
1
1
1
1
1
1
1
1
1
1
1
1
1
1
1
1
1
