# vtk DataFile Version 3.0
Molecular Dynamics Particle Data
ASCII
DATASET POLYDATA
POINTS 200 float
0.00198243 0.00168111 1.00022
-0.105972 -0.0968346 0.989828
0.0170253 0.198146 0.98
0.147997 -0.193015 0.970015
-0.276024 0.0490488 0.960013
0.263005 0.167977 0.950018
-0.088992 -0.329015 0.940014
-0.169039 0.326 0.930013
0.368024 -0.133961 0.920014
-0.382988 -0.158045 0.910015
0.184965 0.395021 0.900015
0.136033 -0.434999 0.890015
-0.411019 0.237987 0.880014
0.482007 0.106013 0.870013
-0.293007 -0.417012 0.860012
-0.0679946 0.522014 0.850012
0.415 -0.350018 0.840013
-0.557013 -0.0229816 0.830012
0.406025 0.403992 0.820013
-0.0270272 -0.586009 0.810013
-0.383986 0.461025 0.800013
0.608 -0.0820302 0.790014
-0.514024 -0.356982 0.780014
0.14003 0.622 0.770014
0.32298 -0.564022 0.760014
-0.63 0.201029 0.750013
0.611019 0.28198 0.740014
-0.264026 -0.63 0.730013
-0.234981 0.653016 0.720013
0.623 -0.328023 0.710012
-0.691015 -0.181984 0.700013
0.391021 0.609 0.690012
0.123987 -0.723014 0.680011
-0.587 0.455018 0.670011
0.749014 0.0619891 0.66001
-0.516015 -0.558 0.65001
0.00400774 0.768014 0.640008
0.522 -0.575015 0.630009
-0.781013 0.0720071 0.620008
0.631013 0.479005 0.610008
-0.143006 -0.787013 0.600008
-0.430006 0.683013 0.590006
0.786013 -0.215006 0.580009
-0.731013 -0.375007 0.570005
0.288003 0.777014 0.560006
0.315007 -0.774013 0.550005
-0.761013 0.360004 0.540008
0.810013 0.250008 0.530004
-0.432001 -0.737015 0.520004
-0.181007 0.841013 0.510006
0.706015 -0.502 0.500004
-0.865014 -0.108007 0.490007
0.569 0.668015 0.480007
0.0320075 -0.882014 0.470007
-0.623015 0.632 0.460006
0.892015 -0.0459923 0.450006
-0.692003 -0.572014 0.440007
0.124994 0.894015 0.430007
0.515014 -0.747007 0.420007
-0.889016 0.204994 0.410006
0.797009 0.452013 0.400007
-0.284 -0.876015 0.390006
-0.384014 0.84201 0.380006
0.855016 -0.363 0.370006
-0.879012 -0.311013 0.360005
0.44 0.827016 0.350006
0.235012 -0.911013 0.340006
-0.792015 0.514 0.330006
0.935014 0.15601 0.320006
-0.586 -0.749015 0.310006
-0.0740083 0.951014 0.300005
0.699015 -0.653 0.290003
-0.960015 0.00899437 0.280005
0.716004 0.643015 0.270003
-0.0939949 -0.961015 0.260004
-0.582014 0.774008 0.250004
0.954015 -0.177999 0.240004
-0.82601 -0.514013 0.230004
0.262 0.940015 0.220004
0.442012 -0.872012 0.210004
-0.917015 0.345 0.200003
0.911013 0.366009 0.190003
-0.426 -0.887015 0.180003
-0.286007 0.943014 0.170003
0.849015 -0.503 0.160003
-0.968014 -0.203007 0.150003
0.577002 0.804014 0.140002
0.118004 -0.984015 0.130002
-0.753014 0.647006 0.120002
0.993015 0.0310039 0.110002
-0.71201 -0.695013 0.100002
0.0559975 0.994015 0.0900012
0.631013 -0.772011 0.0800016
-0.987015 0.143 0.0700012
0.825012 0.562011 0.060001
-0.229002 -0.972015 0.0500011
-0.488009 0.872013 0.0400009
0.949015 -0.313003 0.0300005
-0.912014 -0.410007 0.0200005
0.395006 0.919015 0.01
0.329006 -0.944014 -2.60259e-07
-0.881014 0.474008 -0.0100002
0.969015 0.245004 -0.02
-0.549008 -0.835013 -0.0300006
-0.16 0.986015 -0.0400006
0.784011 -0.619012 -0.0500006
-0.996015 -0.072999 -0.0600011
0.685013 0.726011 -0.0700011
-0.0150016 -0.997015 -0.0800007
-0.662007 0.744014 -0.0900015
0.990015 -0.101005 -0.100002
-0.798014 -0.593006 -0.110002
0.187006 0.975015 -0.120002
0.52 -0.844015 -0.130002
-0.952014 0.271007 -0.140002
0.884015 0.443001 -0.150003
-0.352009 -0.922013 -0.160003
-0.363 0.916015 -0.170003
0.885013 -0.430011 -0.180004
-0.941015 -0.28 -0.190004
0.504012 0.840011 -0.200003
0.195998 -0.958015 -0.210004
-0.79001 0.573013 -0.220004
0.967015 0.110997 -0.230005
-0.636014 -0.733005 -0.240004
-0.0259945 0.968015 -0.250004
0.671001 -0.694015 -0.260004
-0.961015 0.0590064 -0.270005
0.746015 0.604 -0.280005
-0.141009 -0.947014 -0.290006
-0.533 0.791015 -0.300006
0.924013 -0.222011 -0.310004
-0.829015 -0.459 -0.320006
0.300012 0.895012 -0.330005
0.382 -0.859016 -0.340005
-0.859011 0.374014 -0.350005
0.882016 0.302999 -0.360005
-0.444014 -0.816009 -0.370006
-0.222996 0.898015 -0.380006
0.767007 -0.509015 -0.390006
-0.905015 -0.141994 -0.400006
0.569015 0.713002 -0.410007
0.0619925 -0.905015 -0.420006
-0.654 0.623015 -0.430007
0.898014 -0.0180065 -0.440007
-0.670015 -0.59 -0.450007
0.0950085 0.883014 -0.460007
0.523 -0.711014 -0.470007
-0.861013 0.170008 -0.480007
0.745014 0.453002 -0.490007
-0.241009 -0.832013 -0.500004
-0.381 0.771014 -0.510007
0.796012 -0.309008 -0.520006
-0.790014 -0.308 -0.530005
0.372008 0.755012 -0.540006
0.234003 -0.802014 -0.550008
-0.709012 0.429009 -0.560005
0.806014 0.161001 -0.570006
-0.481008 -0.657012 -0.580006
-0.0880036 0.803014 -0.590008
0.602012 -0.527008 -0.600005
-0.792014 -0.0170041 -0.610007
0.567003 0.542014 -0.620007
-0.050994 -0.775014 -0.630009
-0.481014 0.599001 -0.640008
0.751015 -0.115993 -0.650008
-0.625 -0.417017 -0.66001
0.176991 0.721015 -0.67001
0.352019 -0.643 -0.68001
-0.685015 0.232988 -0.690011
0.654 0.287021 -0.700012
-0.283986 -0.644018 -0.710012
-0.222025 0.657 -0.720012
0.599019 -0.329982 -0.730014
-0.654 -0.159028 -0.740014
0.368982 0.549023 -0.750014
0.0980288 -0.643 -0.760014
-0.497025 0.399983 -0.770014
0.625004 0.0390312 -0.780014
-0.424986 -0.442027 -0.790013
0.0149716 0.60001 -0.800013
0.385029 -0.441991 -0.810012
-0.569014 0.0639774 -0.820013
0.451 0.328023 -0.830012
-0.107988 -0.532014 -0.840012
-0.272013 0.451007 -0.850012
0.489012 -0.144006 -0.860012
-0.443015 -0.216994 -0.870013
0.174024 0.442 -0.880014
0.163971 -0.426017 -0.890015
-0.389986 0.194039 -0.900015
0.399017 0.113957 -0.910015
-0.205042 -0.333983 -0.920015
-0.0699697 0.36102 -0.930014
0.274 -0.203015 -0.940014
-0.310984 -0.033019 -0.95002
0.185982 0.210044 -0.960014
0.00401101 -0.242976 -0.97002
-0.136986 0.143969 -0.98002
0.140969 -0.0100216 -0.990021
VERTICES 200 400
1 0
1 1
1 2
1 3
1 4
1 5
1 6
1 7
1 8
1 9
1 10
1 11
1 12
1 13
1 14
1 15
1 16
1 17
1 18
1 19
1 20
1 21
1 22
1 23
1 24
1 25
1 26
1 27
1 28
1 29
1 30
1 31
1 32
1 33
1 34
1 35
1 36
1 37
1 38
1 39
1 40
1 41
1 42
1 43
1 44
1 45
1 46
1 47
1 48
1 49
1 50
1 51
1 52
1 53
1 54
1 55
1 56
1 57
1 58
1 59
1 60
1 61
1 62
1 63
1 64
1 65
1 66
1 67
1 68
1 69
1 70
1 71
1 72
1 73
1 74
1 75
1 76
1 77
1 78
1 79
1 80
1 81
1 82
1 83
1 84
1 85
1 86
1 87
1 88
1 89
1 90
1 91
1 92
1 93
1 94
1 95
1 96
1 97
1 98
1 99
1 100
1 101
1 102
1 103
1 104
1 105
1 106
1 107
1 108
1 109
1 110
1 111
1 112
1 113
1 114
1 115
1 116
1 117
1 118
1 119
1 120
1 121
1 122
1 123
1 124
1 125
1 126
1 127
1 128
1 129
1 130
1 131
1 132
1 133
1 134
1 135
1 136
1 137
1 138
1 139
1 140
1 141
1 142
1 143
1 144
1 145
1 146
1 147
1 148
1 149
1 150
1 151
1 152
1 153
1 154
1 155
1 156
1 157
1 158
1 159
1 160
1 161
1 162
1 163
1 164
1 165
1 166
1 167
1 168
1 169
1 170
1 171
1 172
1 173
1 174
1 175
1 176
1 177
1 178
1 179
1 180
1 181
1 182
1 183
1 184
1 185
1 186
1 187
1 188
1 189
1 190
1 191
1 192
1 193
1 194
1 195
1 196
1 197
1 198
1 199
POINT_DATA 200
VECTORS velocity float
0.00944594 0.0079678 0.00105343
-0.00939516 -0.00874415 -0.000813904
0.000125985 0.000741201 1.39984e-05
-1.45174e-05 -7.69817e-05 8.36603e-05
-0.000119995 0.000244689 6.40795e-05
2.42033e-05 -0.000116021 9.64593e-05
4.09715e-05 -8.0068e-05 7.36892e-05
-0.000195807 -8.12017e-06 6.66813e-05
0.000118621 0.000193543 7.37053e-05
6.16443e-05 -0.000225567 8.1083e-05
-0.000174605 0.0001084 8.26964e-05
0.000164184 1.56869e-05 7.74269e-05
-9.50133e-05 -6.40871e-05 6.96513e-05
3.85778e-05 6.73632e-05 6.80976e-05
-3.88778e-05 -5.8511e-05 5.77618e-05
2.72347e-05 7.44845e-05 5.7623e-05
2.88158e-06 -8.85794e-05 6.39127e-05
-6.84331e-05 9.22011e-05 5.89817e-05
0.000125342 -4.28292e-05 6.29259e-05
-0.000135851 -4.89065e-05 6.4966e-05
7.30321e-05 0.000123866 6.79926e-05
2.64905e-05 -0.000151173 6.95679e-05
-0.000118197 9.19628e-05 7.01684e-05
0.000151524 1.14336e-05 7.07024e-05
-0.000102417 -0.000111434 6.90636e-05
-2.94022e-06 0.00014679 6.82351e-05
9.77673e-05 -9.84822e-05 6.91835e-05
-0.00013126 -5.34963e-08 6.47844e-05
9.38538e-05 8.99118e-05 6.51578e-05
4.79721e-06 -0.000114975 5.79581e-05
-7.87886e-05 8.10445e-05 6.34829e-05
0.000107342 1.58449e-06 5.79609e-05
-6.33523e-05 -7.40445e-05 5.53828e-05
-1.04227e-05 8.98824e-05 5.42018e-05
7.05377e-05 -5.43031e-05 5.22394e-05
-8.34525e-05 -1.12073e-05 5.26426e-05
3.86972e-05 7.00662e-05 4.48368e-05
1.66219e-05 -7.63908e-05 4.93779e-05
-6.76199e-05 3.55226e-05 4.45509e-05
6.79767e-05 2.70424e-05 4.47937e-05
-3.01333e-05 -6.62138e-05 4.5263e-05
-3.22988e-05 6.72789e-05 4.00248e-05
6.46536e-05 -2.78496e-05 4.66607e-05
-6.38486e-05 -3.943e-05 3.87453e-05
1.98593e-05 7.27504e-05 3.96429e-05
4.00157e-05 -6.4298e-05 3.87689e-05
-6.79041e-05 2.18473e-05 4.41444e-05
6.60427e-05 4.03656e-05 3.53377e-05
-1.68057e-05 -7.77308e-05 3.59004e-05
-3.56781e-05 6.66974e-05 3.98227e-05
8.07071e-05 -1.83885e-05 3.6294e-05
-7.14302e-05 -3.6055e-05 3.7443e-05
2.27725e-05 7.97735e-05 3.66576e-05
3.76484e-05 -7.43096e-05 3.37114e-05
-8.00253e-05 2.72815e-05 3.1166e-05
7.86455e-05 3.85869e-05 3.22474e-05
-3.47633e-05 -7.48615e-05 3.44697e-05
-3.00034e-05 8.02911e-05 3.30359e-05
6.96345e-05 -4.22877e-05 3.45949e-05
-8.59191e-05 -2.81504e-05 3.01342e-05
4.82022e-05 6.80401e-05 3.35132e-05
1.11363e-05 -8.27423e-05 3.27171e-05
-7.05078e-05 5.23109e-05 3.14261e-05
8.5638e-05 8.07019e-06 3.08133e-05
-5.82877e-05 -6.47831e-05 2.72903e-05
-2.76294e-07 8.65574e-05 2.90719e-05
5.76162e-05 -6.49533e-05 3.09067e-05
-8.16217e-05 1.49403e-05 3.09529e-05
7.02266e-05 4.82301e-05 3.00439e-05
-1.97542e-05 -8.3256e-05 2.78637e-05
-4.17474e-05 7.43121e-05 2.62664e-05
8.15677e-05 -2.78465e-05 2.04722e-05
-7.73863e-05 -2.81373e-05 2.57683e-05
3.57862e-05 7.80568e-05 2.05941e-05
2.57378e-05 -8.21456e-05 2.12666e-05
-6.93698e-05 4.60024e-05 2.2521e-05
8.16641e-05 8.6934e-06 2.22731e-05
-5.18103e-05 -6.54252e-05 1.9742e-05
1.65703e-06 8.22402e-05 2.22339e-05
5.77915e-05 -5.87325e-05 2.16391e-05
-8.37255e-05 5.15215e-06 1.63736e-05
6.602e-05 4.9093e-05 1.80215e-05
-1.39589e-05 -8.2766e-05 1.7286e-05
-3.99143e-05 7.15484e-05 1.75272e-05
7.86992e-05 -2.45992e-05 1.49647e-05
-7.61298e-05 -3.41745e-05 1.5008e-05
3.22443e-05 7.44846e-05 1.12772e-05
2.14505e-05 -7.78436e-05 1.01157e-05
-7.09928e-05 4.08628e-05 1.15569e-05
7.99672e-05 1.97631e-05 1.06744e-05
-5.18147e-05 -6.3108e-05 9.31336e-06
-1.26149e-05 8.16798e-05 6.32586e-06
6.35266e-05 -5.40701e-05 8.08934e-06
-8.17364e-05 -1.69698e-06 6.32307e-06
6.21104e-05 5.39563e-05 5.37364e-06
-1.19093e-05 -8.04937e-05 5.93056e-06
-4.90899e-05 6.6319e-05 5.00815e-06
7.8895e-05 -1.93394e-05 2.37728e-06
-7.21664e-05 -3.92698e-05 2.35575e-06
3.21046e-05 7.57408e-05 5.0414e-08
2.94278e-05 -7.59354e-05 -1.29826e-06
-7.22773e-05 4.02946e-05 -1.35507e-06
7.83771e-05 1.99919e-05 -4.28414e-07
-4.46321e-05 -6.80589e-05 -3.27307e-06
-5.35896e-06 8.10965e-05 -3.05756e-06
5.7669e-05 -5.90315e-05 -3.27995e-06
-8.28104e-05 5.6015e-06 -6.01258e-06
6.47127e-05 5.35591e-05 -5.75393e-06
-7.91261e-06 -8.21288e-05 -4.91013e-06
-4.31032e-05 6.9716e-05 -7.3809e-06
7.99073e-05 -2.53524e-05 -1.07555e-05
-7.21419e-05 -3.93106e-05 -9.55047e-06
3.1303e-05 7.62889e-05 -1.26822e-05
2.66379e-05 -7.83331e-05 -1.27423e-05
-7.22529e-05 3.98157e-05 -1.14669e-05
8.24497e-05 1.69998e-05 -1.29572e-05
-4.74875e-05 -6.70525e-05 -1.53809e-05
-6.96631e-06 8.38792e-05 -1.57482e-05
6.36425e-05 -5.41386e-05 -1.82356e-05
-8.27625e-05 -3.14396e-07 -1.9299e-05
5.78616e-05 5.71051e-05 -1.69043e-05
-1.01946e-05 -8.36622e-05 -1.93038e-05
-5.00591e-05 6.58901e-05 -2.14617e-05
8.13683e-05 -1.72334e-05 -2.46556e-05
-7.60422e-05 -3.73967e-05 -2.18739e-05
2.73881e-05 7.93054e-05 -2.29594e-05
3.18318e-05 -7.77089e-05 -2.30476e-05
-7.61516e-05 3.18745e-05 -2.39516e-05
7.92179e-05 2.41882e-05 -2.5631e-05
-4.75927e-05 -7.19781e-05 -2.76613e-05
-1.70676e-05 8.09871e-05 -2.80427e-05
6.59842e-05 -5.58333e-05 -2.36452e-05
-8.52162e-05 -5.48567e-06 -2.87444e-05
6.19131e-05 6.05178e-05 -2.67282e-05
-6.16332e-06 -8.71314e-05 -2.63215e-05
-5.37857e-05 7.07248e-05 -2.73009e-05
8.74304e-05 -1.60248e-05 -2.52992e-05
-7.06059e-05 -4.82624e-05 -3.15167e-05
2.20684e-05 8.54098e-05 -2.97365e-05
4.16604e-05 -7.71121e-05 -2.85807e-05
-8.16468e-05 3.05134e-05 -2.9418e-05
8.07324e-05 3.31287e-05 -3.29735e-05
-3.73709e-05 -7.89895e-05 -2.945e-05
-2.88437e-05 7.77607e-05 -3.56783e-05
7.32166e-05 -3.25351e-05 -3.77106e-05
-7.8795e-05 -2.3143e-05 -3.46134e-05
4.26911e-05 7.10517e-05 -3.48153e-05
2.08324e-05 -7.48474e-05 -3.9793e-05
-6.74814e-05 4.20988e-05 -3.92299e-05
7.58833e-05 1.83741e-05 -3.96329e-05
-4.7565e-05 -6.47893e-05 -3.58603e-05
-1.40718e-05 7.25714e-05 -4.13873e-05
6.23451e-05 -4.28935e-05 -3.92001e-05
-7.56515e-05 -1.09093e-05 -3.84985e-05
4.28187e-05 5.97935e-05 -4.08801e-05
1.57339e-05 -7.09093e-05 -4.40922e-05
-5.85528e-05 4.76601e-05 -3.81734e-05
7.44689e-05 8.13688e-06 -3.91826e-05
-4.30253e-05 -6.00785e-05 -3.94975e-05
-1.85412e-05 7.00529e-05 -4.45229e-05
6.06127e-05 -4.60182e-05 -3.83999e-05
-7.1577e-05 -2.0658e-05 -4.22114e-05
3.4989e-05 6.9046e-05 -4.16058e-05
2.99775e-05 -7.14245e-05 -4.72509e-05
-7.38933e-05 3.07923e-05 -4.49968e-05
7.68006e-05 3.63442e-05 -4.62879e-05
-2.12526e-05 -8.61573e-05 -5.21305e-05
-4.69113e-05 7.90512e-05 -5.12441e-05
9.77782e-05 -1.9848e-05 -5.19958e-05
-8.53848e-05 -6.05709e-05 -5.56689e-05
1.48069e-05 0.000108186 -6.02318e-05
7.15976e-05 -9.44812e-05 -5.96219e-05
-0.000123067 1.43375e-05 -6.16814e-05
9.94043e-05 8.96424e-05 -7.33914e-05
-1.39258e-05 -0.000137996 -7.05191e-05
-9.18612e-05 0.000116028 -7.08137e-05
0.000143856 -2.13977e-05 -7.25739e-05
-0.000126253 -8.61101e-05 -7.11306e-05
3.61679e-05 0.000156118 -7.14413e-05
7.22823e-05 -0.000138169 -6.77183e-05
-0.000141979 5.2874e-05 -6.85149e-05
0.000143127 4.85301e-05 -6.24912e-05
-6.96996e-05 -0.00011312 -6.46425e-05
-7.97063e-06 0.000115857 -6.12724e-05
6.10082e-05 -7.58203e-05 -6.18241e-05
-6.32535e-05 3.81733e-05 -6.03935e-05
5.94529e-05 -3.08934e-05 -5.94571e-05
-7.83712e-05 2.81125e-05 -6.54571e-05
0.000117849 5.97747e-06 -7.0294e-05
-0.000145107 -8.71297e-05 -8.10477e-05
6.96963e-05 0.000192411 -8.16694e-05
8.47567e-05 -0.000212919 -8.34321e-05
-0.000209615 8.4287e-05 -7.71701e-05
0.000151479 0.000100356 -6.93002e-05
1.27822e-05 -7.75041e-05 -7.45049e-05
7.98707e-05 -9.51667e-05 -0.000102898
-9.01943e-05 0.000220568 -7.11285e-05
5.49801e-05 0.000118983 -0.000103608
7.02285e-05 -0.000154843 -0.000104111
-0.000156547 -0.000107804 -0.000106924
VECTORS force float
0.0193306 0.0158892 0.00223579
-0.0191968 -0.017922 -0.00161827
0.000308414 0.00195315 2.19414e-05
-4.28206e-05 -0.000190171 0.00020949
-0.000296087 0.000617982 0.000160432
6.23119e-05 -0.000288466 0.000240606
0.000106994 -0.000218725 0.000179875
-0.000489914 -1.98254e-05 0.000166461
0.000296128 0.000482998 0.000184196
0.00015032 -0.000563197 0.000201526
-0.000435242 0.000270875 0.000206467
0.000409869 3.88118e-05 0.000193389
-0.000237717 -0.000159459 0.000173849
9.67289e-05 0.000168212 0.000170122
-9.73757e-05 -0.000146438 0.000144301
6.80138e-05 0.000185928 0.000144184
7.04499e-06 -0.000220944 0.000159984
-0.000170526 0.000230081 0.000147722
0.00031264 -0.000107083 0.000157567
-0.000339109 -0.000121928 0.000162581
0.000182383 0.000309257 0.000170047
6.62468e-05 -0.000377516 0.000173857
-0.000295356 0.000229626 0.000175339
0.000378522 2.88043e-05 0.000176572
-0.000255737 -0.000278572 0.000172507
-7.63156e-06 0.000366766 0.000170367
0.000244507 -0.000245887 0.000172724
-0.00032802 -4.01281e-07 0.000161746
0.000234338 0.000224872 0.000162667
1.21618e-05 -0.000287354 0.00014475
-0.000197036 0.000202399 0.000158539
0.000268262 4.09388e-06 0.000144791
-0.000158284 -0.00018511 0.000138386
-2.60882e-05 0.000224641 0.000135464
0.000176276 -0.000135734 0.000130613
-0.000208556 -2.80436e-05 0.000131573
9.68051e-05 0.00017504 0.000112179
4.15622e-05 -0.0001909 0.00012343
-0.00016892 8.88579e-05 0.000111468
0.000169898 6.74773e-05 0.000112068
-7.53678e-05 -0.000165421 0.000113232
-8.05879e-05 0.000168144 0.000100176
0.000161541 -6.96349e-05 0.000116714
-0.000159562 -9.84044e-05 9.69833e-05
4.97008e-05 0.000181726 9.92221e-05
9.99017e-05 -0.000160685 9.70202e-05
-0.000169668 5.46356e-05 0.00011043
0.00016503 0.000100772 8.84563e-05
-4.20922e-05 -0.000194136 8.98953e-05
-8.91384e-05 0.000166697 9.95991e-05
0.000201568 -4.6052e-05 9.08645e-05
-0.000178527 -9.00767e-05 9.36478e-05
5.69808e-05 0.000199311 9.16839e-05
9.40364e-05 -0.000185725 8.4317e-05
-0.000199954 6.82438e-05 7.79296e-05
0.000196561 9.63635e-05 8.06495e-05
-8.69243e-05 -0.000187098 8.61644e-05
-7.49526e-05 0.0002007 8.25832e-05
0.000174073 -0.000105721 8.64639e-05
-0.000214746 -7.0292e-05 7.53483e-05
0.000120507 0.000170098 8.37535e-05
2.78718e-05 -0.000206874 8.17537e-05
-0.000176219 0.000130788 7.85522e-05
0.000214108 2.01896e-05 7.70055e-05
-0.000145725 -0.000161915 6.82083e-05
-6.76424e-07 0.000216392 7.26429e-05
0.000144004 -0.000162394 7.72254e-05
-0.000204051 3.73659e-05 7.73169e-05
0.000175579 0.000120547 7.50601e-05
-4.94247e-05 -0.000208104 6.95918e-05
-0.000104335 0.000185779 6.56347e-05
0.000203852 -6.96466e-05 5.11556e-05
-0.000193465 -7.03404e-05 6.43757e-05
8.94674e-05 0.000195102 5.14765e-05
6.42988e-05 -0.00020534 5.31598e-05
-0.000173415 0.000114997 5.6295e-05
0.000204144 2.17394e-05 5.5672e-05
-0.000129521 -0.000163543 4.93544e-05
4.13402e-06 0.000205588 5.55574e-05
0.000144471 -0.00014682 5.40788e-05
-0.000209292 1.28916e-05 4.0918e-05
0.000165033 0.000122734 4.50321e-05
-3.49272e-05 -0.000206886 4.31748e-05
-9.97862e-05 0.000178856 4.37885e-05
0.000196716 -6.15242e-05 3.73577e-05
-0.000190311 -8.54182e-05 3.7498e-05
8.06328e-05 0.000186167 2.81743e-05
5.36435e-05 -0.000194586 2.52868e-05
-0.000177462 0.000102148 2.88944e-05
0.000199897 4.93841e-05 2.66813e-05
-0.000129509 -0.000157776 2.32947e-05
-3.15034e-05 0.000204176 1.58191e-05
0.000158787 -0.000135186 2.02106e-05
-0.000204321 -4.23665e-06 1.58007e-05
0.000155278 0.000134863 1.34324e-05
-2.97559e-05 -0.000201221 1.48097e-05
-0.000122695 0.000165793 1.25099e-05
0.000197225 -4.83439e-05 5.92157e-06
-0.000180404 -9.81534e-05 5.88287e-06
8.02327e-05 0.00018935 1.15408e-07
7.35232e-05 -0.000189841 -3.22538e-06
-0.000180676 0.000100729 -3.38114e-06
0.000195928 4.99634e-05 -1.07912e-06
-0.000111572 -0.000170132 -8.17143e-06
-1.34143e-05 0.000202719 -7.64315e-06
0.000144177 -0.000147551 -8.20216e-06
-0.000207004 1.39837e-05 -1.50233e-05
0.000161769 0.000133891 -1.4394e-05
-1.97965e-05 -0.0002053 -1.22885e-05
-0.000107751 0.00017427 -1.84635e-05
0.000199752 -6.33495e-05 -2.68799e-05
-0.000180345 -9.82603e-05 -2.38763e-05
7.82413e-05 0.000190706 -3.16871e-05
6.66449e-05 -0.000195777 -3.18145e-05
-0.00018062 9.95165e-05 -2.86604e-05
0.000206103 4.25138e-05 -3.23528e-05
-0.00011871 -0.000167619 -3.8432e-05
-1.74305e-05 0.000209675 -3.93337e-05
0.000159092 -0.000135349 -4.5561e-05
-0.000206889 -7.89319e-07 -4.82197e-05
0.00014465 0.000142748 -4.22645e-05
-2.54675e-05 -0.000209134 -4.82425e-05
-0.000125132 0.000164723 -5.36542e-05
0.000203408 -4.30712e-05 -6.16013e-05
-0.000190061 -9.34979e-05 -5.46798e-05
6.84555e-05 0.000198253 -5.7371e-05
7.95896e-05 -0.000194236 -5.75752e-05
-0.000190374 7.96855e-05 -5.98423e-05
0.000198006 6.05044e-05 -6.40132e-05
-0.000118945 -0.000179956 -6.90985e-05
-4.2686e-05 0.000202454 -7.00503e-05
0.000164961 -0.000139533 -5.90997e-05
-0.000213033 -1.37344e-05 -7.18079e-05
0.000154749 0.0001513 -6.67967e-05
-1.54145e-05 -0.000217829 -6.57862e-05
-0.000134476 0.000176765 -6.82319e-05
0.000218556 -4.0041e-05 -6.32381e-05
-0.00017651 -0.000120664 -7.87504e-05
5.51425e-05 0.000213509 -7.43219e-05
0.00010417 -0.00019273 -7.14356e-05
-0.0002041 7.6234e-05 -7.35296e-05
0.000201752 8.28569e-05 -8.24103e-05
-9.3346e-05 -0.000197433 -7.36421e-05
-7.21473e-05 0.000194325 -8.91732e-05
0.000183033 -8.13256e-05 -9.42552e-05
-0.000196896 -5.78986e-05 -8.65496e-05
0.000106659 0.000177595 -8.70646e-05
5.21066e-05 -0.000187056 -9.95009e-05
-0.000168672 0.000105195 -9.80993e-05
0.000189626 4.59536e-05 -9.91505e-05
-0.000118794 -0.00016192 -8.9737e-05
-3.52383e-05 0.000181313 -0.000103551
0.000155819 -0.000107167 -9.80494e-05
-0.00018897 -2.73566e-05 -9.63676e-05
0.000106966 0.000149448 -0.000102254
3.93706e-05 -0.000177171 -0.000110307
-0.000146346 0.000119003 -9.55351e-05
0.000186 2.0466e-05 -9.80946e-05
-0.000107429 -0.000150159 -9.88347e-05
-4.64183e-05 0.000175005 -0.000111405
0.000151513 -0.000114808 -9.61624e-05
-0.000178792 -5.17433e-05 -0.000105651
8.73383e-05 0.000172564 -0.000104106
7.49923e-05 -0.00017845 -0.000118201
-0.000184667 7.69301e-05 -0.00011251
0.000191898 9.09103e-05 -0.000115782
-5.31811e-05 -0.000215298 -0.000130267
-0.000117252 0.000197584 -0.000128091
0.000244349 -4.96853e-05 -0.000129914
-0.000213469 -0.00015129 -0.000139062
3.72144e-05 0.00027034 -0.000150392
0.00017879 -0.000236248 -0.000148889
-0.00030752 3.60818e-05 -0.000153989
0.000248589 0.000223732 -0.0001832
-3.51126e-05 -0.000344778 -0.000176036
-0.000229302 0.000290074 -0.000176824
0.000359384 -5.37455e-05 -0.000181201
-0.000315525 -0.000214978 -0.000177703
9.04915e-05 0.000389905 -0.000178496
0.000180504 -0.000345074 -0.000169319
-0.000354474 0.000131958 -0.000171368
0.000357143 0.000121291 -0.000156434
-0.000173678 -0.000282351 -0.00016186
-2.0125e-05 0.000288958 -0.000153464
0.000152271 -0.00018899 -0.000154801
-0.000157895 9.52139e-05 -0.000151126
0.000148617 -7.71026e-05 -0.000148655
-0.000195948 6.99725e-05 -0.000163547
0.000294274 1.56454e-05 -0.000175452
-0.000362078 -0.000217671 -0.000202476
0.000173918 0.000480052 -0.000204093
0.000211206 -0.000531271 -0.000208555
-0.000522974 0.000210379 -0.000192889
0.000377959 0.000250325 -0.000173297
3.20782e-05 -0.000193668 -0.000186201
0.000199428 -0.000237477 -0.000257118
-0.000224942 0.000549513 -0.000177965
0.000136677 0.00029692 -0.000258819
0.000175752 -0.00038629 -0.00026008
-0.000390853 -0.000268192 -0.000267108
SCALARS mass float 1
LOOKUP_TABLE default
1
1
1
1
1
1
1
1
1
1
1
1
1
1
1
1
1
1
1
1
1
1
1
1
1
1
1
1
1
1
1
1
1
1
1
1
1
1
1
1
1
1
1
1
1
1
1
1
1
1
1
1
1
1
1
1
1
1
1
1
1
1
1
1
1
1
1
1
1
1
1
1
1
1
1
1
1
1
1
1
1
1
1
1
1
1
1
1
1
1
1
1
1
1
1
1
1
1
1
1
1
1
1
1
1
1
1
1
1
1
1
1
1
1
1
1
1
1
1
1
1
1
1
1
1
1
1
1
1
1
1
1
1
1
1
1
1
1
1
1
1
1
1
1
1
1
1
1
1
1
1
1
1
1
1
1
1
1
1
1
1
1
1
1
1
1
1
1
1
1
1
1
1
1
1
1
1
1
1
1
1
1
1
1
1
1
1
1
1
1
1
1
1
1
1
1
1
1
1
1
