# vtk DataFile Version 3.0
Molecular Dynamics Particle Data
ASCII
DATASET POLYDATA
POINTS 200 float
0.00556467 0.00467119 1.00062
-0.109533 -0.100153 0.989523
0.0170767 0.19846 0.98
0.147991 -0.193047 0.97005
-0.276073 0.0491502 0.960039
0.263013 0.167929 0.950059
-0.0889746 -0.32905 0.940045
-0.16912 0.326 0.930041
0.368073 -0.133882 0.920045
-0.382963 -0.158138 0.910048
0.184893 0.395066 0.900049
0.136101 -0.43499 0.890047
-0.411058 0.237961 0.880043
0.482023 0.106041 0.870042
-0.293023 -0.417035 0.860034
-0.0679834 0.522045 0.850034
0.415 -0.350054 0.840039
-0.557042 -0.0229436 0.830035
0.406077 0.403975 0.820038
-0.0270832 -0.586027 0.81004
-0.383956 0.461076 0.800042
0.608015 -0.0820926 0.790043
-0.514071 -0.356944 0.780043
0.140093 0.622 0.770043
0.322937 -0.564068 0.760042
-0.63 0.20109 0.750042
0.61106 0.28194 0.740042
-0.26408 -0.63 0.73004
-0.234943 0.653054 0.72004
0.623 -0.32807 0.710034
-0.691047 -0.181951 0.700039
0.391066 0.609 0.690034
0.123961 -0.723045 0.680032
-0.587 0.455055 0.670031
0.749043 0.0619668 0.660029
-0.516049 -0.558 0.650029
0.00402371 0.768043 0.640026
0.522 -0.575046 0.630027
-0.781041 0.0720217 0.620026
0.631042 0.479015 0.610026
-0.143018 -0.787041 0.600026
-0.43002 0.683041 0.590024
0.78604 -0.215017 0.580026
-0.731039 -0.375024 0.570023
0.288012 0.777044 0.560024
0.315024 -0.774039 0.550023
-0.761042 0.360013 0.540026
0.81004 0.250024 0.530022
-0.43201 -0.737047 0.520022
-0.181022 0.841041 0.510024
0.706048 -0.502003 0.500022
-0.865044 -0.108022 0.490023
0.569011 0.668048 0.480022
0.032023 -0.882045 0.470021
-0.623048 0.632016 0.460019
0.892047 -0.0459764 0.45002
-0.692021 -0.572046 0.440021
0.124982 0.894048 0.43002
0.515043 -0.747025 0.420021
-0.889051 0.204983 0.410018
0.797027 0.452042 0.400021
-0.283995 -0.876049 0.39002
-0.384043 0.842029 0.380019
0.855051 -0.363 0.370019
-0.879035 -0.31104 0.360016
0.44 0.827051 0.350017
0.235035 -0.91104 0.340019
-0.792049 0.514 0.330019
0.935043 0.156029 0.320018
-0.586006 -0.749049 0.310016
-0.0740256 0.951045 0.300015
0.699049 -0.653016 0.290012
-0.960047 0.00898277 0.280014
0.716022 0.643047 0.270012
-0.0939842 -0.961049 0.260013
-0.582042 0.774026 0.250013
0.954049 -0.177995 0.240013
-0.826029 -0.51404 0.230012
0.262 0.940049 0.220013
0.442035 -0.872035 0.210013
-0.91705 0.345 0.20001
0.91104 0.36603 0.190011
-0.426008 -0.887049 0.180011
-0.286024 0.943044 0.170011
0.849047 -0.503013 0.160009
-0.968046 -0.203021 0.150009
0.57702 0.804045 0.140006
0.118013 -0.984047 0.130006
-0.753043 0.647024 0.120007
0.993048 0.0310121 0.110006
-0.712029 -0.695038 0.100006
0.0559923 0.994049 0.0900035
0.631039 -0.772031 0.0800049
-0.987049 0.143 0.0700035
0.825038 0.562031 0.0600032
-0.229007 -0.972048 0.0500036
-0.48803 0.872041 0.040003
0.949047 -0.313012 0.0300014
-0.912044 -0.410024 0.0200014
0.39502 0.919046 0.01
0.329018 -0.944046 -7.945e-07
-0.881044 0.474024 -0.0100008
0.969047 0.245012 -0.02
-0.549026 -0.835042 -0.030002
-0.160002 0.986048 -0.0400017
0.784034 -0.619035 -0.0500018
-0.996049 -0.0729968 -0.0600037
0.68504 0.72603 -0.0700033
-0.0150048 -0.997049 -0.0800029
-0.662025 0.744043 -0.0900044
0.990048 -0.101016 -0.100006
-0.798044 -0.593024 -0.110006
0.187019 0.975046 -0.120008
0.520015 -0.844047 -0.130007
-0.952044 0.271024 -0.140007
0.884049 0.44301 -0.150007
-0.352029 -0.922041 -0.160009
-0.363 0.91605 -0.17001
0.885039 -0.430033 -0.180011
-0.941049 -0.28 -0.190012
0.504034 0.840034 -0.20001
0.195994 -0.95805 -0.210012
-0.790028 0.57304 -0.220013
0.967048 0.110989 -0.230015
-0.636046 -0.733023 -0.240013
-0.0259832 0.968048 -0.250013
0.671019 -0.694047 -0.260013
-0.961046 0.0590195 -0.270013
0.746048 0.604012 -0.280014
-0.141029 -0.947044 -0.290016
-0.533 0.791048 -0.300016
0.92404 -0.222034 -0.310013
-0.82905 -0.459 -0.320017
0.300038 0.895036 -0.330015
0.382 -0.859052 -0.340015
-0.859031 0.374043 -0.350016
0.882052 0.30299 -0.360014
-0.444043 -0.816027 -0.370019
-0.222987 0.89805 -0.380018
0.767025 -0.509047 -0.390017
-0.905049 -0.141982 -0.400018
0.569048 0.71302 -0.41002
0.0619771 -0.905047 -0.420018
-0.654017 0.623047 -0.430022
0.898045 -0.0180199 -0.440023
-0.670047 -0.590011 -0.450021
0.0950261 0.883043 -0.460021
0.523008 -0.711046 -0.470024
-0.861041 0.170026 -0.480024
0.745046 0.453011 -0.490024
-0.241029 -0.83204 -0.500022
-0.381008 0.771044 -0.510025
0.796038 -0.309025 -0.520024
-0.790046 -0.308005 -0.530023
0.372025 0.755036 -0.540024
0.23401 -0.802043 -0.550026
-0.709035 0.429029 -0.560023
0.806045 0.161005 -0.570024
-0.481025 -0.657036 -0.580024
-0.0880113 0.803043 -0.590026
0.602037 -0.527026 -0.600023
-0.792044 -0.0170126 -0.610025
0.567021 0.542042 -0.620025
-0.0509816 -0.775044 -0.630027
-0.481045 0.599019 -0.640026
0.751046 -0.115978 -0.650026
-0.625008 -0.417053 -0.660029
0.176972 0.721048 -0.670028
0.35206 -0.643006 -0.680029
-0.68505 0.232963 -0.690032
0.654 0.287066 -0.700036
-0.283956 -0.644057 -0.710036
-0.222075 0.657 -0.720037
0.599061 -0.329945 -0.730045
-0.654 -0.159084 -0.740043
0.368944 0.54907 -0.750043
0.0980881 -0.643009 -0.760044
-0.497077 0.399947 -0.770043
0.625022 0.0390956 -0.780044
-0.424956 -0.442085 -0.790042
0.0149131 0.60003 -0.800042
0.385087 -0.44197 -0.810038
-0.569043 0.0639308 -0.820039
0.451 0.328071 -0.830037
-0.107963 -0.532046 -0.840037
-0.272039 0.451023 -0.850036
0.489036 -0.144019 -0.860036
-0.443048 -0.216983 -0.87004
0.174072 0.442 -0.880043
0.163911 -0.426053 -0.890048
-0.389957 0.194118 -0.900049
0.399052 0.11387 -0.910049
-0.205128 -0.333948 -0.920047
-0.0699073 0.361061 -0.930042
0.274007 -0.203047 -0.940045
-0.310951 -0.0330583 -0.950063
0.185945 0.210135 -0.960043
0.00403363 -0.242927 -0.970063
-0.136957 0.143905 -0.980064
0.140904 -0.0100659 -0.990065
VERTICES 200 400
1 0
1 1
1 2
1 3
1 4
1 5
1 6
1 7
1 8
1 9
1 10
1 11
1 12
1 13
1 14
1 15
1 16
1 17
1 18
1 19
1 20
1 21
1 22
1 23
1 24
1 25
1 26
1 27
1 28
1 29
1 30
1 31
1 32
1 33
1 34
1 35
1 36
1 37
1 38
1 39
1 40
1 41
1 42
1 43
1 44
1 45
1 46
1 47
1 48
1 49
1 50
1 51
1 52
1 53
1 54
1 55
1 56
1 57
1 58
1 59
1 60
1 61
1 62
1 63
1 64
1 65
1 66
1 67
1 68
1 69
1 70
1 71
1 72
1 73
1 74
1 75
1 76
1 77
1 78
1 79
1 80
1 81
1 82
1 83
1 84
1 85
1 86
1 87
1 88
1 89
1 90
1 91
1 92
1 93
1 94
1 95
1 96
1 97
1 98
1 99
1 100
1 101
1 102
1 103
1 104
1 105
1 106
1 107
1 108
1 109
1 110
1 111
1 112
1 113
1 114
1 115
1 116
1 117
1 118
1 119
1 120
1 121
1 122
1 123
1 124
1 125
1 126
1 127
1 128
1 129
1 130
1 131
1 132
1 133
1 134
1 135
1 136
1 137
1 138
1 139
1 140
1 141
1 142
1 143
1 144
1 145
1 146
1 147
1 148
1 149
1 150
1 151
1 152
1 153
1 154
1 155
1 156
1 157
1 158
1 159
1 160
1 161
1 162
1 163
1 164
1 165
1 166
1 167
1 168
1 169
1 170
1 171
1 172
1 173
1 174
1 175
1 176
1 177
1 178
1 179
1 180
1 181
1 182
1 183
1 184
1 185
1 186
1 187
1 188
1 189
1 190
1 191
1 192
1 193
1 194
1 195
1 196
1 197
1 198
1 199
POINT_DATA 200
VECTORS velocity float
0.0140438 0.0115918 0.00161414
-0.0139498 -0.0130144 -0.00118172
0.000215307 0.0013672 1.52517e-05
-2.98506e-05 -0.000133125 0.000146642
-0.000207123 0.000432335 0.000112327
4.36472e-05 -0.000201908 0.000168414
7.49925e-05 -0.000153201 0.000125883
-0.000342956 -1.38636e-05 0.000116515
0.000207286 0.000338083 0.000128931
0.000105175 -0.000394214 0.000141058
-0.000304633 0.000189617 0.00014452
0.000286896 2.71404e-05 0.000135359
-0.000166409 -0.000111604 0.000121688
6.77135e-05 0.000117732 0.000119078
-6.81536e-05 -0.000102506 0.000101011
4.7603e-05 0.000130143 0.000100927
4.93094e-06 -0.000154646 0.000111991
-0.000119357 0.000161046 0.000103404
0.000218824 -7.4956e-05 0.000110299
-0.000237354 -8.53379e-05 0.00011381
0.000127663 0.000216474 0.00011903
4.63528e-05 -0.000264252 0.000121725
-0.000206753 0.000160737 0.000122733
0.000264967 2.01623e-05 0.000123601
-0.000179012 -0.000194998 0.000120753
-5.34162e-06 0.000256737 0.00011926
0.000171154 -0.000172121 0.000120913
-0.000229616 -2.78496e-07 0.000113225
0.000164044 0.000157403 0.000113883
8.50301e-06 -0.000201151 0.000101332
-0.00013792 0.000141686 0.000110986
0.000187787 2.8512e-06 0.000101362
-0.000110812 -0.00012957 9.68788e-05
-1.82475e-05 0.000157255 9.48298e-05
0.000123395 -9.50185e-05 9.14237e-05
-0.000145992 -1.96144e-05 9.21097e-05
6.77708e-05 0.000122529 7.85229e-05
2.9081e-05 -0.000133631 8.64074e-05
-0.000118249 6.21991e-05 7.80193e-05
0.000118925 4.7241e-05 7.84411e-05
-5.27525e-05 -0.000115799 7.92544e-05
-5.64297e-05 0.000117696 7.01102e-05
0.000113088 -4.87354e-05 8.16852e-05
-0.000111697 -6.88897e-05 6.78805e-05
3.47775e-05 0.000127227 6.94374e-05
6.99382e-05 -0.000112486 6.79057e-05
-0.000118781 3.82333e-05 7.72838e-05
0.000115535 7.05591e-05 6.18975e-05
-2.94495e-05 -0.000135927 6.29007e-05
-6.24028e-05 0.000116696 6.97043e-05
0.000141116 -3.22373e-05 6.3579e-05
-0.000124972 -6.3051e-05 6.55499e-05
3.98826e-05 0.000139527 6.41737e-05
6.58218e-05 -0.000130007 5.90245e-05
-0.000139978 4.77635e-05 5.45616e-05
0.000137589 6.74501e-05 5.64644e-05
-6.08412e-05 -0.000130983 6.03165e-05
-5.24587e-05 0.000140481 5.78209e-05
0.000121848 -7.40015e-05 6.05321e-05
-0.000150315 -4.91951e-05 5.27582e-05
8.43551e-05 0.00011905 5.86379e-05
1.94864e-05 -0.000144792 5.72389e-05
-0.000123337 9.15517e-05 5.49958e-05
0.000149865 1.41183e-05 5.39063e-05
-0.000102005 -0.00011333 4.7753e-05
-4.60995e-07 0.000151461 5.08552e-05
0.000100801 -0.000113671 5.40645e-05
-0.000142824 2.61593e-05 5.41327e-05
0.000122897 8.4389e-05 5.25513e-05
-3.46002e-05 -0.000145659 4.87372e-05
-7.30383e-05 0.000130041 4.59505e-05
0.000142714 -4.87392e-05 3.58278e-05
-0.000135424 -4.92422e-05 4.50661e-05
6.26295e-05 0.000136579 3.60379e-05
4.50111e-05 -0.000143741 3.72082e-05
-0.000121393 8.05003e-05 3.9396e-05
0.000142902 1.52111e-05 3.89611e-05
-9.06661e-05 -0.000114483 3.45347e-05
2.8914e-06 0.000143916 3.88828e-05
0.000101125 -0.000102778 3.78416e-05
-0.000146505 9.02687e-06 2.86397e-05
0.000115526 8.59062e-05 3.15228e-05
-2.44329e-05 -0.000144832 3.02242e-05
-6.98503e-05 0.000125199 3.06514e-05
0.000137705 -4.3059e-05 2.61665e-05
-0.000133218 -5.97944e-05 2.62494e-05
5.64225e-05 0.000130336 1.97278e-05
3.75478e-05 -0.000136212 1.7699e-05
-0.000124228 7.14997e-05 2.02275e-05
0.000139929 3.45688e-05 1.86703e-05
-9.06568e-05 -0.000110438 1.63064e-05
-2.20499e-05 0.000142924 1.10729e-05
0.000111149 -9.46256e-05 1.41478e-05
-0.000143026 -2.96457e-06 1.10576e-05
0.000108688 9.4406e-05 9.39969e-06
-2.08365e-05 -0.000140851 1.03699e-05
-8.58821e-05 0.000116056 8.75203e-06
0.000138055 -3.38406e-05 4.15361e-06
-0.000126281 -6.87088e-05 4.11352e-06
5.61757e-05 0.000132536 9.36083e-08
5.1483e-05 -0.000132879 -2.26272e-06
-0.000126472 7.05118e-05 -2.36374e-06
0.000137148 3.49759e-05 -7.56685e-07
-7.8101e-05 -0.00011909 -5.72072e-06
-9.38746e-06 0.000141905 -5.3484e-06
0.000100919 -0.000103285 -5.73768e-06
-0.000144904 9.7879e-06 -1.05161e-05
0.000113234 9.37229e-05 -1.00769e-05
-1.38563e-05 -0.000143712 -8.59785e-06
-7.54258e-05 0.000121989 -1.29294e-05
0.000139827 -4.4346e-05 -1.88123e-05
-0.000126244 -6.87792e-05 -1.67172e-05
5.4768e-05 0.000133495 -2.2181e-05
4.66336e-05 -0.000137057 -2.22825e-05
-0.000126433 6.966e-05 -2.00616e-05
0.000144275 2.97543e-05 -2.26626e-05
-8.30898e-05 -0.000117334 -2.69014e-05
-1.22057e-05 0.000146773 -2.75331e-05
0.000111368 -9.4738e-05 -3.18882e-05
-0.000144825 -5.53189e-07 -3.37473e-05
0.000101256 9.99221e-05 -2.95699e-05
-1.7826e-05 -0.000146396 -3.37678e-05
-8.75938e-05 0.000115309 -3.75379e-05
0.000142391 -3.01601e-05 -4.31122e-05
-0.000133054 -6.54483e-05 -3.82715e-05
4.79227e-05 0.000138779 -4.01574e-05
5.57016e-05 -0.000135984 -4.03163e-05
-0.00013326 5.57843e-05 -4.1892e-05
0.00013861 4.23425e-05 -4.48239e-05
-8.32703e-05 -0.000125962 -4.83775e-05
-2.98868e-05 0.000141703 -4.90457e-05
0.000115468 -9.76715e-05 -4.13749e-05
-0.000149112 -9.62017e-06 -5.02772e-05
0.000108318 0.000105906 -4.67655e-05
-1.07752e-05 -0.000152469 -4.60541e-05
-9.4132e-05 0.000123719 -4.77757e-05
0.000152969 -2.79979e-05 -4.42801e-05
-0.000123535 -8.4464e-05 -5.51421e-05
3.85785e-05 0.000149439 -5.20467e-05
7.29157e-05 -0.0001349 -5.00248e-05
-0.00014286 5.33542e-05 -5.14856e-05
0.000141234 5.79955e-05 -5.77029e-05
-6.5338e-05 -0.000138199 -5.15569e-05
-5.04902e-05 0.000136052 -6.24246e-05
0.000128119 -5.69205e-05 -6.5982e-05
-0.000137839 -4.05221e-05 -6.05779e-05
7.46572e-05 0.000124317 -6.0945e-05
3.64733e-05 -0.000130948 -6.9631e-05
-0.000118074 7.36391e-05 -6.86592e-05
0.000132768 3.21506e-05 -6.93696e-05
-8.31754e-05 -0.000113356 -6.27896e-05
-2.46313e-05 0.000126962 -7.24458e-05
0.000109076 -7.50224e-05 -6.86253e-05
-0.000132304 -1.91323e-05 -6.74334e-05
7.48793e-05 0.000104611 -7.15729e-05
2.75527e-05 -0.000124028 -7.72022e-05
-0.000102441 8.33079e-05 -6.68686e-05
0.000130216 1.43123e-05 -6.86531e-05
-7.52008e-05 -0.000105113 -6.91818e-05
-3.24891e-05 0.000122509 -7.79757e-05
0.000106063 -8.03734e-05 -6.73013e-05
-0.000125159 -3.62224e-05 -7.39507e-05
6.11075e-05 0.000120813 -7.28908e-05
5.25083e-05 -0.000124914 -8.27419e-05
-0.000129294 5.37959e-05 -7.87999e-05
0.00013433 6.36372e-05 -8.10457e-05
-3.71996e-05 -0.000150719 -9.12054e-05
-8.20884e-05 0.000138301 -8.96752e-05
0.000171046 -3.4769e-05 -9.09494e-05
-0.000149419 -0.000105916 -9.73593e-05
2.60391e-05 0.00018924 -0.000105281
0.000125153 -0.000165368 -0.000104229
-0.000215263 2.52545e-05 -0.000107794
0.000174016 0.000156618 -0.000128245
-2.45811e-05 -0.000241343 -0.000123225
-0.000160497 0.000203056 -0.000123762
0.00025157 -3.7618e-05 -0.000126848
-0.000220864 -0.000150459 -0.000124371
6.3333e-05 0.000272929 -0.000124961
0.000126342 -0.000241545 -0.000118517
-0.000248122 9.23766e-05 -0.000119948
0.000249975 8.48986e-05 -0.000109505
-0.000121563 -0.000197628 -0.000113299
-1.40923e-05 0.000202243 -0.000107432
0.000106583 -0.000132277 -0.000108362
-0.000110521 6.66437e-05 -0.000105789
0.000104044 -5.39573e-05 -0.000104047
-0.000137159 4.8978e-05 -0.000114482
0.000205991 1.09617e-05 -0.000122814
-0.000253435 -0.000152373 -0.000141728
0.000121731 0.00033602 -0.000142865
0.000147844 -0.000371865 -0.000145986
-0.00036606 0.000147254 -0.000135023
0.000264554 0.00017521 -0.000121311
2.24399e-05 -0.000135565 -0.000130348
0.000139592 -0.000166232 -0.000179979
-0.000157452 0.000384622 -0.000124578
9.56608e-05 0.000207835 -0.000181169
0.000123032 -0.000270383 -0.000182052
-0.000273584 -0.000187714 -0.00018697
VECTORS force float
0.0115583 0.00846368 0.00152784
-0.0114021 -0.0107581 -0.000854877
0.000283922 0.00224172 -1.67234e-05
-6.04674e-05 -0.000183651 0.000210423
-0.000283552 0.000633618 0.000161362
6.77802e-05 -0.000283719 0.000238938
0.000121127 -0.000273161 0.000167047
-0.000491232 -1.82921e-05 0.00016568
0.000294851 0.000480366 0.000183961
0.000138923 -0.000560856 0.000197993
-0.000431261 0.000270539 0.000205608
0.000408075 3.74535e-05 0.000192786
-0.000238312 -0.000157111 0.000172984
9.7592e-05 0.000167509 0.000169708
-9.78395e-05 -0.0001469 0.000144004
6.77541e-05 0.000185032 0.000144559
6.58219e-06 -0.000219365 0.000160595
-0.000168803 0.000228776 0.000148518
0.000310411 -0.000107102 0.000158326
-0.000337443 -0.000120907 0.000163047
0.000181748 0.000308019 0.000170214
6.61779e-05 -0.000376206 0.000173847
-0.000295 0.00022876 0.00017505
0.000377656 2.94901e-05 0.000176007
-0.000254774 -0.000278537 0.000172024
-8.4954e-06 0.000366138 0.000169702
0.000244762 -0.000244922 0.000172054
-0.000327618 -1.22398e-06 0.000161101
0.000233466 0.000225121 0.000162051
1.26249e-05 -0.000287109 0.000144332
-0.000197205 0.000201781 0.000158072
0.000268002 4.42612e-06 0.000144479
-0.000158093 -0.000185037 0.00013825
-2.61055e-05 0.000224473 0.000135355
0.000176059 -0.0001357 0.000130638
-0.000208352 -2.79751e-05 0.000131543
9.7048e-05 0.000174632 0.000112458
4.14344e-05 -0.000190665 0.000123479
-0.000168512 8.90359e-05 0.000111736
0.00016972 6.70782e-05 0.000112333
-7.54826e-05 -0.000165045 0.000113472
-8.01547e-05 0.000167944 0.0001005
0.000161264 -6.96628e-05 0.000116867
-0.000159396 -9.79147e-05 9.73135e-05
4.98208e-05 0.000181347 9.94955e-05
9.95414e-05 -0.000160541 9.72654e-05
-0.000169414 5.46647e-05 0.000110594
0.000164894 0.000100487 8.86532e-05
-4.22304e-05 -0.000193789 9.01377e-05
-8.90027e-05 0.000166607 9.96498e-05
0.000201133 -4.62766e-05 9.10685e-05
-0.000178414 -8.99071e-05 9.37306e-05
5.70648e-05 0.000199071 9.17665e-05
9.37911e-05 -0.000185596 8.44237e-05
-0.000199751 6.82963e-05 7.80299e-05
0.00019641 9.60576e-05 8.07637e-05
-8.69487e-05 -0.000186995 8.61736e-05
-7.47658e-05 0.000200592 8.25986e-05
0.000173968 -0.000105738 8.64344e-05
-0.000214587 -7.00336e-05 7.54203e-05
0.000120529 0.000169959 8.36918e-05
2.77791e-05 -0.000206803 8.16778e-05
-0.000175991 0.000130824 7.85175e-05
0.000214078 2.01256e-05 7.68968e-05
-0.000145724 -0.000161735 6.81915e-05
-5.41775e-07 0.000216278 7.25673e-05
0.000143884 -0.000162407 7.71333e-05
-0.000203956 3.74434e-05 7.7198e-05
0.000175573 0.000120497 7.49631e-05
-4.95079e-05 -0.000207968 6.95508e-05
-0.000104238 0.000185749 6.55918e-05
0.000203785 -6.96372e-05 5.12137e-05
-0.000193443 -7.0341e-05 6.42839e-05
8.94974e-05 0.000195023 5.14503e-05
6.41918e-05 -0.000205288 5.31213e-05
-0.000173366 0.000115004 5.61965e-05
0.000204096 2.17147e-05 5.55951e-05
-0.000129523 -0.000163472 4.92573e-05
4.09328e-06 0.000205568 5.54369e-05
0.00014444 -0.000146795 5.39572e-05
-0.000209231 1.29331e-05 4.0853e-05
0.000165003 0.000122694 4.49971e-05
-3.4891e-05 -0.000206868 4.3113e-05
-9.98118e-05 0.000178804 4.37177e-05
0.000196682 -6.14934e-05 3.73122e-05
-0.000190274 -8.5379e-05 3.74325e-05
8.05716e-05 0.000186156 2.81587e-05
5.36856e-05 -0.000194526 2.52746e-05
-0.000177429 0.000102108 2.88791e-05
0.00019984 4.93143e-05 2.66338e-05
-0.000129453 -0.000157747 2.32632e-05
-3.13908e-05 0.000204108 1.58223e-05
0.000158656 -0.000135215 2.01774e-05
-0.000204268 -4.20974e-06 1.57691e-05
0.00015524 0.000134805 1.34303e-05
-2.97777e-05 -0.00020115 1.4784e-05
-0.000122576 0.000165795 1.24734e-05
0.000197152 -4.83677e-05 5.93391e-06
-0.000180361 -9.81049e-05 5.86072e-06
8.0219e-05 0.000189292 1.56045e-07
7.35009e-05 -0.000189781 -3.21601e-06
-0.000180619 0.000100722 -3.36923e-06
0.000195875 4.9926e-05 -1.11419e-06
-0.000111575 -0.00017006 -8.17323e-06
-1.3436e-05 0.000202666 -7.6313e-06
0.00014418 -0.000147443 -8.21126e-06
-0.000206946 1.39141e-05 -1.49868e-05
0.000161679 0.000133893 -1.43942e-05
-1.98239e-05 -0.000205242 -1.2309e-05
-0.000107748 0.0001742 -1.84901e-05
0.000199709 -6.32519e-05 -2.68251e-05
-0.000180318 -9.82162e-05 -2.38745e-05
7.81964e-05 0.000190668 -3.16226e-05
6.66437e-05 -0.000195726 -3.17716e-05
-0.00018058 9.94559e-05 -2.86563e-05
0.000206039 4.25288e-05 -3.23588e-05
-0.000118641 -0.000167594 -3.83911e-05
-1.74974e-05 0.000209609 -3.92243e-05
0.000159063 -0.00013534 -4.54542e-05
-0.000206851 -8.04817e-07 -4.81052e-05
0.000144656 0.00014269 -4.21727e-05
-2.54153e-05 -0.000209082 -4.81746e-05
-0.000125113 0.000164699 -5.35083e-05
0.000203405 -4.31055e-05 -6.1428e-05
-0.000189993 -9.35299e-05 -5.45947e-05
6.84203e-05 0.000198223 -5.72919e-05
7.95629e-05 -0.000194232 -5.7535e-05
-0.000190344 7.97006e-05 -5.97712e-05
0.000197966 6.04936e-05 -6.39594e-05
-0.000118883 -0.000179944 -6.89933e-05
-4.27866e-05 0.000202311 -6.99568e-05
0.000164933 -0.000139367 -5.9111e-05
-0.000212923 -1.38432e-05 -7.17265e-05
0.000154609 0.000151297 -6.67764e-05
-1.53084e-05 -0.000217729 -6.57516e-05
-0.000134503 0.000176532 -6.82218e-05
0.000218364 -3.97825e-05 -6.32901e-05
-0.000176351 -0.000120693 -7.86908e-05
5.4956e-05 0.000213378 -7.43613e-05
0.000104216 -0.000192496 -7.14901e-05
-0.000203988 7.60346e-05 -7.35612e-05
0.000201568 8.29355e-05 -8.24301e-05
-9.31001e-05 -0.000197309 -7.37089e-05
-7.21719e-05 0.000194281 -8.91326e-05
0.000182994 -8.12602e-05 -9.42031e-05
-0.000196756 -5.79576e-05 -8.65529e-05
0.000106453 0.000177516 -8.7117e-05
5.21614e-05 -0.000186951 -9.94445e-05
-0.000168609 0.00010507 -9.81073e-05
0.000189561 4.59204e-05 -9.91182e-05
-0.000118578 -0.000161843 -8.9834e-05
-3.51929e-05 0.000181235 -0.000103576
0.000155712 -0.000107022 -9.81295e-05
-0.000188712 -2.74396e-05 -9.65473e-05
0.000106751 0.000149327 -0.000102388
3.94326e-05 -0.000176929 -0.00011045
-0.000146223 0.000118575 -9.58287e-05
0.000185563 2.07695e-05 -9.84468e-05
-0.000106999 -0.000150036 -9.91321e-05
-4.66312e-05 0.000174613 -0.000111697
0.000151448 -0.000114165 -9.6568e-05
-0.000178339 -5.20766e-05 -0.000106016
8.67462e-05 0.000172512 -0.000104493
7.52174e-05 -0.000178089 -0.000118434
-0.000184642 7.6382e-05 -0.00011286
0.000191562 9.10936e-05 -0.000115985
-5.30213e-05 -0.000215137 -0.000130306
-0.000117293 0.000197366 -0.00012814
0.000244113 -4.97137e-05 -0.000129815
-0.000213437 -0.000150957 -0.000138808
3.7748e-05 0.000269975 -0.000149863
0.000178175 -0.000236347 -0.000148428
-0.00030705 3.68057e-05 -0.000153338
0.000248842 0.000222674 -0.00018242
-3.60302e-05 -0.000344123 -0.000175234
-0.000228162 0.000290122 -0.000176096
0.000358631 -5.44453e-05 -0.00018059
-0.000315188 -0.00021389 -0.000177184
9.0669e-05 0.000388696 -0.000178237
0.000179754 -0.000343996 -0.000169292
-0.000352997 0.000131365 -0.000171511
0.000355003 0.000121083 -0.000156998
-0.00017192 -0.000280914 -0.000162611
-2.07318e-05 0.000286783 -0.000154342
0.000151516 -0.000187242 -0.000155517
-0.000157156 9.45281e-05 -0.000151553
0.000148685 -7.66221e-05 -0.000148603
-0.00019599 6.90364e-05 -0.000163256
0.00029325 1.77728e-05 -0.000174608
-0.000359941 -0.00021724 -0.000202009
0.000172898 0.000477057 -0.000203845
0.000209156 -0.000528093 -0.000208463
-0.000519691 0.000209311 -0.000192779
0.000375667 0.000248555 -0.000173459
3.22892e-05 -0.000193387 -0.000186087
0.000198648 -0.000236153 -0.000256718
-0.000223282 0.000543651 -0.000178408
0.000134324 0.000295268 -0.000258193
0.00017632 -0.00038375 -0.000259471
-0.000389245 -0.000264194 -0.00026647
SCALARS mass float 1
LOOKUP_TABLE default
1
1
1
1
1
1
1
1
1
1
1
1
1
1
1
1
1
1
1
1
1
1
1
1
1
1
1
1
1
1
1
1
1
1
1
1
1
1
1
1
1
1
1
1
1
1
1
1
1
1
1
1
1
1
1
1
1
1
1
1
1
1
1
1
1
1
1
1
1
1
1
1
1
1
1
1
1
1
1
1
1
1
1
1
1
1
1
1
1
1
1
1
1
1
1
1
1
1
1
1
1
1
1
1
1
1
1
1
1
1
1
1
1
1
1
1
1
1
1
1
1
1
1
1
1
1
1
1
1
1
1
1
1
1
1
1
1
1
1
1
1
1
1
1
1
1
1
1
1
1
1
1
1
1
1
1
1
1
1
1
1
1
1
1
1
1
1
1
1
1
1
1
1
1
1
1
1
1
1
1
1
1
1
1
1
1
1
1
1
1
1
1
1
1
1
1
1
1
1
1
