# vtk DataFile Version 3.0
Molecular Dynamics Particle Data
ASCII
DATASET POLYDATA
POINTS 200 float
0.000129821 0.000110619 1.00001
-0.104129 -0.0951201 0.989989
0.0170016 0.198009 0.98
0.148 -0.193001 0.97
-0.276002 0.049003 0.96
0.263 0.167999 0.95
-0.0889995 -0.329001 0.94
-0.169002 0.326 0.93
0.368001 -0.133998 0.92
-0.383 -0.158003 0.91
0.184998 0.395001 0.9
0.136002 -0.435 0.89
-0.411001 0.237999 0.88
0.482 0.106001 0.87
-0.293 -0.417 0.86
-0.0679997 0.522 0.85
0.415 -0.350001 0.84
-0.557 -0.0229988 0.83
0.406002 0.404 0.82
-0.0270017 -0.586 0.81
-0.383999 0.461002 0.8
0.608 -0.0820019 0.79
-0.514 -0.356999 0.78
0.140002 0.622 0.77
0.322999 -0.564 0.76
-0.63 0.201002 0.75
0.611 0.281999 0.74
-0.264002 -0.63 0.73
-0.234999 0.653 0.72
0.623 -0.328001 0.71
-0.691 -0.181999 0.7
0.391001 0.609 0.69
0.123999 -0.723 0.68
-0.587 0.455001 0.67
0.749 0.0619993 0.66
-0.516 -0.558 0.65
0.00400048 0.768 0.64
0.522 -0.575 0.63
-0.781 0.0720004 0.62
0.631 0.479 0.61
-0.143 -0.787 0.6
-0.43 0.683 0.59
0.786 -0.215 0.58
-0.731 -0.375 0.57
0.288 0.777 0.56
0.315 -0.774 0.55
-0.761 0.36 0.54
0.81 0.25 0.53
-0.432 -0.737 0.52
-0.181 0.841 0.51
0.706 -0.502 0.5
-0.865 -0.108 0.49
0.569 0.668 0.48
0.0320005 -0.882 0.47
-0.623 0.632 0.46
0.892 -0.0459995 0.45
-0.692 -0.572 0.44
0.125 0.894 0.43
0.515 -0.747 0.42
-0.889 0.205 0.41
0.797 0.452 0.4
-0.284 -0.876 0.39
-0.384 0.842 0.38
0.855 -0.363 0.37
-0.879 -0.311 0.36
0.44 0.827 0.35
0.235001 -0.911 0.34
-0.792 0.514 0.33
0.935 0.156001 0.32
-0.586 -0.749 0.31
-0.0740005 0.951 0.3
0.699 -0.653 0.29
-0.96 0.00899965 0.28
0.716 0.643 0.27
-0.0939997 -0.961 0.26
-0.582 0.774 0.25
0.954 -0.178 0.24
-0.826 -0.514 0.23
0.262 0.94 0.22
0.442 -0.872 0.21
-0.917 0.345 0.2
0.911 0.366 0.19
-0.426 -0.887 0.18
-0.286 0.943 0.17
0.849 -0.503 0.16
-0.968 -0.203 0.15
0.577 0.804 0.14
0.118 -0.984 0.13
-0.753 0.647 0.12
0.993 0.0310002 0.11
-0.712 -0.695 0.1
0.0559998 0.994 0.09
0.631 -0.772 0.08
-0.987 0.143 0.07
0.825 0.562 0.06
-0.229 -0.972 0.05
-0.488 0.872 0.04
0.949 -0.313 0.03
-0.912 -0.41 0.02
0.395 0.919 0.01
0.329 -0.944 -1.63108e-08
-0.881 0.474 -0.01
0.969 0.245 -0.02
-0.549 -0.835 -0.03
-0.16 0.986 -0.04
0.784 -0.619 -0.05
-0.996 -0.073 -0.06
0.685 0.726 -0.07
-0.0150001 -0.997 -0.08
-0.662 0.744 -0.09
0.99 -0.101 -0.1
-0.798 -0.593 -0.11
0.187 0.975 -0.12
0.52 -0.844 -0.13
-0.952 0.271 -0.14
0.884 0.443 -0.15
-0.352 -0.922 -0.16
-0.363 0.916 -0.17
0.885 -0.43 -0.18
-0.941 -0.28 -0.19
0.504 0.84 -0.2
0.196 -0.958 -0.21
-0.79 0.573 -0.22
0.967 0.111 -0.23
-0.636 -0.733 -0.24
-0.0259997 0.968 -0.25
0.671 -0.694 -0.26
-0.961 0.0590004 -0.27
0.746 0.604 -0.28
-0.141001 -0.947 -0.29
-0.533 0.791 -0.3
0.924 -0.222001 -0.31
-0.829 -0.459 -0.32
0.3 0.895 -0.33
0.382 -0.859 -0.34
-0.859 0.374 -0.35
0.882 0.303 -0.36
-0.444 -0.816 -0.37
-0.223 0.898 -0.38
0.767 -0.509 -0.39
-0.905 -0.142 -0.4
0.569 0.713 -0.41
0.0619996 -0.905 -0.42
-0.654 0.623 -0.43
0.898 -0.0180004 -0.44
-0.67 -0.59 -0.45
0.0950005 0.883 -0.46
0.523 -0.711 -0.47
-0.861 0.17 -0.48
0.745 0.453 -0.49
-0.241001 -0.832 -0.5
-0.381 0.771 -0.51
0.796 -0.309 -0.52
-0.79 -0.308 -0.53
0.372 0.755 -0.54
0.234 -0.802 -0.55
-0.709 0.429 -0.56
0.806 0.161 -0.57
-0.481 -0.657 -0.58
-0.0880001 0.803 -0.59
0.602 -0.527 -0.6
-0.792 -0.0170003 -0.61
0.567 0.542 -0.62
-0.0509996 -0.775 -0.63
-0.481001 0.599 -0.64
0.751 -0.116 -0.65
-0.625 -0.417001 -0.66
0.176999 0.721 -0.67
0.352001 -0.643 -0.68
-0.685 0.232999 -0.69
0.654 0.287001 -0.7
-0.284 -0.644 -0.71
-0.222002 0.657 -0.72
0.599 -0.329999 -0.73
-0.654 -0.159002 -0.74
0.368999 0.549 -0.75
0.0980018 -0.643 -0.76
-0.497002 0.399999 -0.77
0.625 0.0390019 -0.78
-0.424999 -0.442002 -0.79
0.0149982 0.6 -0.8
0.385002 -0.442 -0.81
-0.569 0.0639986 -0.82
0.451 0.328001 -0.83
-0.107999 -0.532 -0.84
-0.272 0.451 -0.85
0.489 -0.144 -0.86
-0.443001 -0.217 -0.87
0.174001 0.442 -0.88
0.163998 -0.426001 -0.89
-0.39 0.194002 -0.9
0.399001 0.113997 -0.91
-0.205003 -0.333999 -0.92
-0.0699981 0.361001 -0.93
0.274 -0.203001 -0.94
-0.310999 -0.0330012 -0.95
0.185999 0.210003 -0.96
0.00400069 -0.242999 -0.97
-0.136999 0.143998 -0.98
0.140998 -0.0100014 -0.99
VERTICES 200 400
1 0
1 1
1 2
1 3
1 4
1 5
1 6
1 7
1 8
1 9
1 10
1 11
1 12
1 13
1 14
1 15
1 16
1 17
1 18
1 19
1 20
1 21
1 22
1 23
1 24
1 25
1 26
1 27
1 28
1 29
1 30
1 31
1 32
1 33
1 34
1 35
1 36
1 37
1 38
1 39
1 40
1 41
1 42
1 43
1 44
1 45
1 46
1 47
1 48
1 49
1 50
1 51
1 52
1 53
1 54
1 55
1 56
1 57
1 58
1 59
1 60
1 61
1 62
1 63
1 64
1 65
1 66
1 67
1 68
1 69
1 70
1 71
1 72
1 73
1 74
1 75
1 76
1 77
1 78
1 79
1 80
1 81
1 82
1 83
1 84
1 85
1 86
1 87
1 88
1 89
1 90
1 91
1 92
1 93
1 94
1 95
1 96
1 97
1 98
1 99
1 100
1 101
1 102
1 103
1 104
1 105
1 106
1 107
1 108
1 109
1 110
1 111
1 112
1 113
1 114
1 115
1 116
1 117
1 118
1 119
1 120
1 121
1 122
1 123
1 124
1 125
1 126
1 127
1 128
1 129
1 130
1 131
1 132
1 133
1 134
1 135
1 136
1 137
1 138
1 139
1 140
1 141
1 142
1 143
1 144
1 145
1 146
1 147
1 148
1 149
1 150
1 151
1 152
1 153
1 154
1 155
1 156
1 157
1 158
1 159
1 160
1 161
1 162
1 163
1 164
1 165
1 166
1 167
1 168
1 169
1 170
1 171
1 172
1 173
1 174
1 175
1 176
1 177
1 178
1 179
1 180
1 181
1 182
1 183
1 184
1 185
1 186
1 187
1 188
1 189
1 190
1 191
1 192
1 193
1 194
1 195
1 196
1 197
1 198
1 199
POINT_DATA 200
VECTORS velocity float
0.00258786 0.00220436 0.000284443
-0.00257548 -0.00239407 -0.000225449
3.17904e-05 0.000180533 4.11678e-06
-3.31331e-06 -1.93541e-05 2.08983e-05
-3.01802e-05 6.08657e-05 1.60103e-05
5.96303e-06 -2.90792e-05 2.41409e-05
1.00291e-05 -1.9137e-05 1.86281e-05
-4.89337e-05 -2.05161e-06 1.66814e-05
2.96744e-05 4.84264e-05 1.84298e-05
1.55901e-05 -5.64246e-05 2.03258e-05
-4.37117e-05 2.71053e-05 2.06869e-05
4.10721e-05 3.93938e-06 1.93639e-05
-2.37446e-05 -1.60575e-05 1.74259e-05
9.63247e-06 1.68497e-05 1.70298e-05
-9.71172e-06 -1.46204e-05 1.44454e-05
6.81211e-06 1.86343e-05 1.44004e-05
7.27562e-07 -2.21692e-05 1.59687e-05
-1.71342e-05 2.30699e-05 1.47337e-05
3.137e-05 -1.07071e-05 1.57197e-05
-3.39862e-05 -1.22405e-05 1.6236e-05
1.8268e-05 3.09856e-05 1.69955e-05
6.62141e-06 -3.78127e-05 1.73947e-05
-2.95551e-05 2.30043e-05 1.75464e-05
3.78944e-05 2.84765e-06 1.76841e-05
-2.56194e-05 -2.78584e-05 1.72737e-05
-7.21543e-07 3.67072e-05 1.70688e-05
2.44372e-05 -2.46355e-05 1.73066e-05
-3.28211e-05 -4.5266e-10 1.62057e-05
2.34774e-05 2.24734e-05 1.62994e-05
1.19194e-06 -2.87473e-05 1.44957e-05
-1.96942e-05 2.02714e-05 1.58781e-05
2.68405e-05 3.8966e-07 1.44952e-05
-1.58416e-05 -1.85121e-05 1.38478e-05
-2.60491e-06 2.24738e-05 1.35515e-05
1.76382e-05 -1.35765e-05 1.30588e-05
-2.08672e-05 -2.80136e-06 1.31611e-05
9.67139e-06 1.75232e-05 1.12048e-05
4.15658e-06 -1.9102e-05 1.23435e-05
-1.69123e-05 8.87718e-06 1.11328e-05
1.6997e-05 6.76773e-06 1.11937e-05
-7.53131e-06 -1.65599e-05 1.13117e-05
-8.08303e-06 1.6823e-05 1.00001e-05
1.61683e-05 -6.96197e-06 1.16623e-05
-1.59652e-05 -9.86717e-06 9.67949e-06
4.96104e-06 1.81965e-05 9.90428e-06
1.00118e-05 -1.60774e-05 9.68635e-06
-1.69817e-05 5.46055e-06 1.10323e-05
1.65142e-05 1.00982e-05 8.82895e-06
-4.19743e-06 -1.94424e-05 8.96777e-06
-8.92294e-06 1.66767e-05 9.95313e-06
2.0186e-05 -4.59348e-06 9.06722e-06
-1.78585e-05 -9.01534e-06 9.36024e-06
5.69119e-06 1.99474e-05 9.16298e-06
9.41553e-06 -1.85786e-05 8.42696e-06
-2.00101e-05 6.81855e-06 7.79079e-06
1.96631e-05 9.65096e-06 8.06058e-06
-8.69008e-06 -1.87166e-05 8.61893e-06
-7.50198e-06 2.00726e-05 8.26017e-06
1.74078e-05 -1.0572e-05 8.65142e-06
-2.14809e-05 -7.04061e-06 7.53338e-06
1.205e-05 1.70099e-05 8.3808e-06
2.78179e-06 -2.06836e-05 8.18182e-06
-1.76291e-05 1.30765e-05 7.85814e-06
2.14085e-05 2.01739e-06 7.70446e-06
-1.45712e-05 -1.61995e-05 6.82305e-06
-7.053e-08 2.16398e-05 7.26863e-06
1.44065e-05 -1.62375e-05 7.72907e-06
-2.04052e-05 3.73454e-06 7.74002e-06
1.75561e-05 1.2059e-05 7.51314e-06
-4.93657e-06 -2.08152e-05 6.968e-06
-1.04389e-05 1.8578e-05 6.56773e-06
2.03948e-05 -6.95973e-06 5.11823e-06
-1.9347e-05 -7.03417e-06 6.44319e-06
8.94614e-06 1.95164e-05 5.14883e-06
6.4363e-06 -2.05378e-05 5.31531e-06
-1.73429e-05 1.15012e-05 5.63078e-06
2.04162e-05 2.17206e-06 5.56893e-06
-1.29531e-05 -1.63565e-05 4.93648e-06
4.15123e-07 2.05601e-05 5.5602e-06
1.44485e-05 -1.46832e-05 5.41129e-06
-2.09321e-05 1.28748e-06 4.09432e-06
1.65054e-05 1.22738e-05 4.50562e-06
-3.48892e-06 -2.06921e-05 4.32288e-06
-9.97796e-06 1.78878e-05 4.38301e-06
1.96753e-05 -6.14933e-06 3.74373e-06
-1.9033e-05 -8.54422e-06 3.75265e-06
8.06002e-06 1.86228e-05 2.82065e-06
5.36172e-06 -1.94618e-05 2.52807e-06
-1.775e-05 1.02148e-05 2.89076e-06
1.99927e-05 4.94239e-06 2.66901e-06
-1.29546e-05 -1.57772e-05 2.32986e-06
-3.15581e-06 2.04209e-05 1.58126e-06
1.58834e-05 -1.35169e-05 2.0235e-06
-2.04347e-05 -4.24401e-07 1.58108e-06
1.55281e-05 1.34896e-05 1.34363e-06
-2.97688e-06 -2.01241e-05 1.48409e-06
-1.2275e-05 1.65789e-05 1.25211e-06
1.97248e-05 -4.83367e-06 5.95663e-07
-1.80415e-05 -9.81891e-06 5.88504e-07
8.0274e-06 1.8935e-05 1.30603e-08
7.35773e-06 -1.89842e-05 -3.26225e-07
-1.80695e-05 1.00742e-05 -3.38155e-07
1.95946e-05 4.99931e-06 -1.07195e-07
-1.11563e-05 -1.7017e-05 -8.17888e-07
-1.33852e-06 2.02749e-05 -7.64865e-07
1.44172e-05 -1.47592e-05 -8.20032e-07
-2.07033e-05 1.40127e-06 -1.50389e-06
1.61795e-05 1.33896e-05 -1.43846e-06
-1.97809e-06 -2.0533e-05 -1.22607e-06
-1.07742e-05 1.74317e-05 -1.84582e-06
1.99771e-05 -6.34049e-06 -2.68941e-06
-1.80371e-05 -9.82658e-06 -2.38892e-06
7.82638e-06 1.90726e-05 -3.17148e-06
6.65762e-06 -1.95849e-05 -3.18774e-06
-1.80639e-05 9.95444e-06 -2.86628e-06
2.06135e-05 4.24829e-06 -3.24076e-06
-1.18733e-05 -1.67632e-05 -3.84518e-06
-1.74084e-06 2.09705e-05 -3.93888e-06
1.59108e-05 -1.35347e-05 -4.56059e-06
-2.0691e-05 -7.83972e-08 -4.82646e-06
1.44642e-05 1.42779e-05 -4.2269e-06
-2.54825e-06 -2.09158e-05 -4.82687e-06
-1.25159e-05 1.64717e-05 -5.36748e-06
2.03425e-05 -4.30858e-06 -6.1657e-06
-1.90122e-05 -9.34822e-06 -5.47124e-06
6.8475e-06 1.98271e-05 -5.73985e-06
7.95758e-06 -1.94286e-05 -5.76303e-06
-1.90385e-05 7.9683e-06 -5.98832e-06
1.98054e-05 6.0465e-06 -6.40943e-06
-1.19e-05 -1.7994e-05 -6.91775e-06
-4.26584e-06 2.02474e-05 -7.01224e-06
1.64961e-05 -1.39615e-05 -5.91128e-06
-2.13044e-05 -1.37011e-06 -7.18714e-06
1.54814e-05 1.51288e-05 -6.68238e-06
-1.54212e-06 -2.17837e-05 -6.58011e-06
-1.34451e-05 1.76857e-05 -6.82586e-06
2.18584e-05 -4.00744e-06 -6.32448e-06
-1.76523e-05 -1.20645e-05 -7.88171e-06
5.51817e-06 2.13525e-05 -7.43509e-06
1.04142e-05 -1.92796e-05 -7.14682e-06
-2.04118e-05 7.62984e-06 -7.35536e-06
2.01854e-05 8.28028e-06 -8.24529e-06
-9.34571e-06 -1.97484e-05 -7.36224e-06
-7.20958e-06 1.94412e-05 -8.92134e-06
1.83033e-05 -8.13278e-06 -9.43002e-06
-1.97004e-05 -5.78483e-06 -8.65325e-06
1.06751e-05 1.77634e-05 -8.70396e-06
5.20695e-06 -1.87133e-05 -9.94826e-06
-1.68705e-05 1.05254e-05 -9.80844e-06
1.8974e-05 4.59216e-06 -9.90595e-06
-1.18967e-05 -1.61997e-05 -8.96105e-06
-3.51553e-06 1.81488e-05 -1.03424e-05
1.55883e-05 -1.07274e-05 -9.79702e-06
-1.89208e-05 -2.72361e-06 -9.61845e-06
1.07098e-05 1.49503e-05 -1.02165e-05
3.93148e-06 -1.7733e-05 -1.10189e-05
-1.46401e-05 1.19237e-05 -9.53743e-06
1.86266e-05 2.02724e-06 -9.78811e-06
-1.07654e-05 -1.50215e-05 -9.86807e-06
-4.63144e-06 1.75203e-05 -1.11254e-05
1.5155e-05 -1.15151e-05 -9.59333e-06
-1.79027e-05 -5.15804e-06 -1.05459e-05
8.7536e-06 1.72645e-05 -1.03976e-05
7.49128e-06 -1.78622e-05 -1.18087e-05
-1.84773e-05 7.70096e-06 -1.12476e-05
1.92065e-05 9.08223e-06 -1.15673e-05
-5.31198e-06 -2.15442e-05 -1.30342e-05
-1.17279e-05 1.9766e-05 -1.28104e-05
2.44495e-05 -4.95937e-06 -1.30018e-05
-2.13465e-05 -1.51486e-05 -1.39212e-05
3.69221e-06 2.70531e-05 -1.50663e-05
1.79097e-05 -2.36181e-05 -1.49133e-05
-3.07737e-05 3.57311e-06 -1.54301e-05
2.48465e-05 2.2427e-05 -1.83597e-05
-3.46664e-06 -3.45095e-05 -1.76422e-05
-2.2981e-05 2.9006e-05 -1.77126e-05
3.59759e-05 -5.3371e-06 -1.81544e-05
-3.15678e-05 -2.15417e-05 -1.77884e-05
9.0363e-06 3.90477e-05 -1.78675e-05
1.80808e-05 -3.45584e-05 -1.69289e-05
-3.55167e-05 1.32268e-05 -1.71272e-05
3.58146e-05 1.21345e-05 -1.56131e-05
-1.74512e-05 -2.83017e-05 -1.61497e-05
-1.98327e-06 2.89975e-05 -1.53047e-05
1.52639e-05 -1.89815e-05 -1.54452e-05
-1.58249e-05 9.55363e-06 -1.50919e-05
1.48653e-05 -7.72849e-06 -1.48632e-05
-1.95924e-05 7.04215e-06 -1.63686e-05
2.94773e-05 1.46246e-06 -1.7586e-05
-3.63095e-05 -2.17892e-05 -2.02686e-05
1.74394e-05 4.8148e-05 -2.04209e-05
2.12211e-05 -5.32787e-05 -2.08588e-05
-5.24535e-05 2.10876e-05 -1.9294e-05
3.79047e-05 2.51161e-05 -1.73225e-05
3.18937e-06 -1.93805e-05 -1.86291e-05
1.99796e-05 -2.38116e-05 -2.57307e-05
-2.25738e-05 5.52315e-05 -1.77755e-05
1.37814e-05 2.97711e-05 -2.59115e-05
1.75484e-05 -3.87496e-05 -2.6037e-05
-3.91608e-05 -2.70132e-05 -2.67403e-05
VECTORS force float
0.0255381 0.0217249 0.00281259
-0.0254139 -0.0236279 -0.00222145
0.000317529 0.00181179 4.03415e-05
-3.35682e-05 -0.000193392 0.000209005
-0.000301559 0.000609078 0.000160114
5.97443e-05 -0.00029069 0.000241373
0.000100585 -0.000192553 0.000186007
-0.000489365 -2.04978e-05 0.000166802
0.000296718 0.000484208 0.000184294
0.000155675 -0.000564205 0.000203193
-0.000437034 0.000271041 0.000206853
0.000410685 3.93746e-05 0.000193633
-0.000237455 -0.000160524 0.000174241
9.63441e-05 0.00016848 0.000170291
-9.71254e-05 -0.000146224 0.000144445
6.81234e-05 0.000186335 0.000144006
7.26986e-06 -0.00022165 0.000159705
-0.00017132 0.000230685 0.000147347
0.000313648 -0.000107072 0.00015722
-0.000339837 -0.000122387 0.000162368
0.000182666 0.000309823 0.000169965
6.62107e-05 -0.000378103 0.000173949
-0.000295554 0.000230026 0.000175451
0.000378929 2.84851e-05 0.000176836
-0.000256176 -0.000278594 0.000172719
-7.22788e-06 0.000367062 0.000170681
0.000244382 -0.00024634 0.000173049
-0.000328202 -1.54982e-08 0.000162053
0.000234766 0.000224742 0.000162983
1.19284e-05 -0.000287467 0.000144954
-0.000196943 0.000202707 0.000158776
0.0002684 3.90448e-06 0.00014495
-0.000158413 -0.000185119 0.000138478
-2.60492e-05 0.000224736 0.000135518
0.000176379 -0.000135764 0.00013059
-0.000208678 -2.80018e-05 0.000131617
9.67127e-05 0.000175228 0.00011205
4.15519e-05 -0.000191023 0.000123443
-0.00016912 8.87694e-05 0.000111329
0.000169971 6.76637e-05 0.000111945
-7.53155e-05 -0.000165593 0.000113121
-8.08198e-05 0.00016823 0.000100007
0.000161678 -6.96214e-05 0.000116625
-0.00015965 -9.86641e-05 9.6802e-05
4.96115e-05 0.00018196 9.90449e-05
0.000100113 -0.000160771 9.68699e-05
-0.000169813 5.46077e-05 0.000110326
0.000165139 0.000100981 8.82921e-05
-4.19753e-05 -0.000194425 8.96759e-05
-8.92259e-05 0.000166765 9.95343e-05
0.000201861 -4.5936e-05 9.06701e-05
-0.000178583 -9.01457e-05 9.36073e-05
5.69131e-05 0.000199474 9.16277e-05
9.4154e-05 -0.000185786 8.4269e-05
-0.000200102 6.81866e-05 7.79058e-05
0.00019663 9.65072e-05 8.06044e-05
-8.69007e-05 -0.000187166 8.61894e-05
-7.50171e-05 0.000200726 8.26008e-05
0.000174078 -0.00010572 8.65143e-05
-0.00021481 -7.0408e-05 7.53316e-05
0.000120502 0.000170092 8.3812e-05
2.782e-05 -0.000206837 8.18166e-05
-0.000176285 0.000130768 7.85838e-05
0.000214085 2.01742e-05 7.70446e-05
-0.000145713 -0.000161994 6.82308e-05
-7.05539e-07 0.000216398 7.26863e-05
0.000144057 -0.000162377 7.72931e-05
-0.000204053 3.73454e-05 7.74001e-05
0.000175562 0.000120584 7.51327e-05
-4.93658e-05 -0.000208152 6.96801e-05
-0.000104385 0.00018578 6.56782e-05
0.000203948 -6.95972e-05 5.11824e-05
-0.000193469 -7.03388e-05 6.44326e-05
8.946e-05 0.000195167 5.1486e-05
6.43603e-05 -0.000205377 5.31537e-05
-0.000173433 0.000115011 5.63052e-05
0.000204162 2.17227e-05 5.56897e-05
-0.00012953 -0.000163567 4.93633e-05
4.1494e-06 0.000205601 5.56027e-05
0.00014449 -0.000146831 5.41093e-05
-0.000209321 1.28747e-05 4.09433e-05
0.000165053 0.000122742 4.50544e-05
-3.48891e-05 -0.000206921 4.32289e-05
-9.97824e-05 0.000178878 4.38296e-05
0.000196754 -6.14934e-05 3.74373e-05
-0.00019033 -8.54407e-05 3.75262e-05
8.06001e-05 0.000186228 2.82065e-05
5.36157e-05 -0.000194618 2.52818e-05
-0.0001775 0.000102148 2.89076e-05
0.000199926 4.94207e-05 2.6691e-05
-0.000129546 -0.000157772 2.32986e-05
-3.15559e-05 0.000204208 1.5814e-05
0.000158834 -0.000135169 2.02351e-05
-0.000204347 -4.24463e-06 1.58123e-05
0.000155281 0.000134897 1.34362e-05
-2.97687e-05 -0.000201241 1.48429e-05
-0.00012275 0.000165789 1.25211e-05
0.000197248 -4.83383e-05 5.95793e-06
-0.000180414 -9.81905e-05 5.884e-06
8.02745e-05 0.00018935 1.30987e-07
7.35789e-05 -0.000189841 -3.2632e-06
-0.000180694 0.000100742 -3.38148e-06
0.000195946 4.99941e-05 -1.07369e-06
-0.000111564 -0.00017017 -8.17881e-06
-1.33855e-05 0.000202749 -7.65086e-06
0.000144173 -0.000147592 -8.20032e-06
-0.000207032 1.40129e-05 -1.50394e-05
0.000161795 0.000133895 -1.43846e-05
-1.97798e-05 -0.00020533 -1.2262e-05
-0.000107742 0.000174317 -1.84582e-05
0.000199771 -6.34013e-05 -2.68951e-05
-0.000180371 -9.82658e-05 -2.38893e-05
7.82639e-05 0.000190726 -3.17131e-05
6.65762e-05 -0.000195849 -3.18774e-05
-0.000180639 9.95471e-05 -2.86629e-05
0.000206135 4.24829e-05 -3.24076e-05
-0.000118736 -0.000167631 -3.84507e-05
-1.74083e-05 0.000209705 -3.93888e-05
0.000159107 -0.000135351 -4.56026e-05
-0.00020691 -7.83792e-07 -4.82648e-05
0.000144643 0.000142778 -4.22683e-05
-2.54839e-05 -0.000209158 -4.827e-05
-0.000125157 0.000164721 -5.36719e-05
0.000203425 -4.30865e-05 -6.16568e-05
-0.000190126 -9.34804e-05 -5.47096e-05
6.84714e-05 0.00019827 -5.73998e-05
7.95758e-05 -0.000194287 -5.76303e-05
-0.000190384 7.96778e-05 -5.98854e-05
0.000198054 6.0465e-05 -6.40942e-05
-0.000118994 -0.000179941 -6.91791e-05
-4.26584e-05 0.000202474 -7.01223e-05
0.000164963 -0.000139607 -5.91153e-05
-0.000213044 -1.3701e-05 -7.18713e-05
0.000154815 0.000151289 -6.68227e-05
-1.54215e-05 -0.000217837 -6.58013e-05
-0.000134454 0.000176852 -6.82594e-05
0.000218584 -4.00754e-05 -6.32443e-05
-0.00017652 -0.000120648 -7.88177e-05
5.51837e-05 0.000213526 -7.43491e-05
0.000104141 -0.000192796 -7.14684e-05
-0.000204119 7.63006e-05 -7.35516e-05
0.000201854 8.28028e-05 -8.24529e-05
-9.34551e-05 -0.000197484 -7.3621e-05
-7.20965e-05 0.000194412 -8.92118e-05
0.000183033 -8.1327e-05 -9.42986e-05
-0.000197004 -5.78493e-05 -8.65305e-05
0.000106744 0.000177632 -8.70436e-05
5.20707e-05 -0.000187134 -9.94804e-05
-0.000168703 0.000105248 -9.80877e-05
0.000189741 4.59227e-05 -9.90575e-05
-0.000118959 -0.000161995 -8.96167e-05
-3.51571e-05 0.000181485 -0.000103425
0.000155882 -0.00010727 -9.79745e-05
-0.000189203 -2.72387e-05 -9.61872e-05
0.000107094 0.000149501 -0.00010217
3.93161e-05 -0.000177326 -0.000110191
-0.000146401 0.00011923 -9.5379e-05
0.00018626 2.02748e-05 -9.78846e-05
-0.000107647 -0.000150216 -9.86842e-05
-4.63145e-05 0.000175199 -0.000111256
0.000151553 -0.000115139 -9.59403e-05
-0.000179023 -5.15804e-05 -0.000105461
8.75239e-05 0.00017265 -0.000103983
7.49101e-05 -0.000178618 -0.000118088
-0.000184772 7.70025e-05 -0.000112482
0.00019206 9.08256e-05 -0.000115677
-5.31195e-05 -0.000215439 -0.000130345
-0.000117279 0.000197657 -0.000128105
0.00024449 -4.96004e-05 -0.000130015
-0.000213467 -0.000151486 -0.000139207
3.69306e-05 0.000270524 -0.000150659
0.000179097 -0.000236187 -0.000149127
-0.000307732 3.57399e-05 -0.000154295
0.000248472 0.000224257 -0.000183583
-3.46788e-05 -0.000345085 -0.000176414
-0.000229794 0.000290071 -0.000177108
0.000359745 -5.33819e-05 -0.000181536
-0.000315663 -0.000215394 -0.000177881
9.0366e-05 0.000390457 -0.000178671
0.000180794 -0.00034556 -0.000169294
-0.000355144 0.000132257 -0.000171275
0.000358101 0.000121345 -0.000156151
-0.000174485 -0.000283 -0.000161508
-1.98414e-05 0.00028992 -0.00015307
0.000152631 -0.000189791 -0.000154461
-0.000158247 9.55259e-05 -0.000150921
0.000148659 -7.72752e-05 -0.00014863
-0.000195926 7.04055e-05 -0.000163682
0.000294752 1.4664e-05 -0.000175848
-0.000363052 -0.00021788 -0.000202678
0.000174383 0.000481426 -0.000204209
0.000212168 -0.000532718 -0.000208586
-0.000524475 0.000210864 -0.000192942
0.000379008 0.000251119 -0.000173234
3.18949e-05 -0.000193804 -0.00018629
0.000199782 -0.000238089 -0.000257298
-0.000225704 0.000552196 -0.000177766
0.000137767 0.000297678 -0.000259102
0.000175495 -0.000387444 -0.000260356
-0.000391577 -0.000270048 -0.000267389
SCALARS mass float 1
LOOKUP_TABLE default
1
1
1
1
1
1
1
1
1
1
1
1
1
1
1
1
1
1
1
1
1
1
1
1
1
1
1
1
1
1
1
1
1
1
1
1
1
1
1
1
1
1
1
1
1
1
1
1
1
1
1
1
1
1
1
1
1
1
1
1
1
1
1
1
1
1
1
1
1
1
1
1
1
1
1
1
1
1
1
1
1
1
1
1
1
1
1
1
1
1
1
1
1
1
1
1
1
1
1
1
1
1
1
1
1
1
1
1
1
1
1
1
1
1
1
1
1
1
1
1
1
1
1
1
1
1
1
1
1
1
1
1
1
1
1
1
1
1
1
1
1
1
1
1
1
1
1
1
1
1
1
1
1
1
1
1
1
1
1
1
1
1
1
1
1
1
1
1
1
1
1
1
1
1
1
1
1
1
1
1
1
1
1
1
1
1
1
1
1
1
1
1
1
1
1
1
1
1
1
1
